<?xml version="1.0"?>
<VTKFile type="UnstructuredGrid"  version="0.1"  >
<UnstructuredGrid>
<Piece  NumberOfPoints="2064" NumberOfCells="3842">
<Points>
<DataArray  type="Float64"  NumberOfComponents="3"  format="ascii">0 0 0  0.4 0 0  0.4 0.4 0  0.4 2 0  0.4 2.4 0  0 2.4 0  0 1.2 0  0.09442719099991592 1.2 0  0.04999999999991419 0 0  0.09999999999976655 0 0  0.1499999999996174 0 0  0.1999999999994737 0 0  0.2499999999996012 0 0  0.2999999999997341 0 0  0.3499999999998725 0 0  0.4 0.04490054755780609 0  0.4 0.08728102288719632 0  0.4 0.127282861984852 0  0.4 0.1650395793634534 0  0.4 0.2006771614573222 0  0.4 0.2343145678202487 0  0.4 0.2660640514334936 0  0.4 0.2960315713318087 0  0.4 0.3243171534442337 0  0.4 0.3510151778607238 0  0.4 0.3762147593669765 0  0.3838325644673298 0.4184519041479398 0  0.3683953300346307 0.4368060584116434 0  0.3536615979029293 0.4550435590956501 0  0.3396051856135377 0.473147237722841 0  0.3262004928426353 0.4911015157475286 0  0.3134225038405827 0.5088923356151951 0  0.3012468350136632 0.5265070301161103 0  0.289649727202514 0.5439342653019726 0  0.2786080797806054 0.5611639229961951 0  0.2680994518128559 0.5781870282993612 0  0.2581020577925817 0.594995687384956 0  0.2485947966955289 0.6115829684453767 0  0.2395572159226798 0.6279428912420084 0  0.2309695402541045 0.6440703056409012 0  0.2228126456010115 0.6599608661499604 0  0.2150680649468926 0.6756109488118054 0  0.2077179652425745 0.6910176244172292 0  0.2007451581747424 0.7061785635724216 0  0.1941330685533778 0.7210920296031775 0  0.187865731362808 0.7357568136786556 0  0.1819277784059361 0.7501721918577611 0  0.1763044223842591 0.7643378897548474 0  0.1709814462523012 0.7782540354567948 0  0.1659451816940687 0.7919211416000106 0  0.1611825004958043 0.8053400559415214 0  0.1566807969567119 0.8185119361740301 0  0.1524279714485859 0.8314382242497815 0  0.1484124145310832 0.8441206213966692 0  0.1446229953612439 0.8565610509978405 0  0.1410490406726472 0.8687616532651306 0  0.1376803237536894 0.8807247502294573 0  0.1345070480820316 0.8924528295474728 0  0.1315198313379682 0.9039485300761398 0  0.1287096917422226 0.9152146212945773 0  0.1260680347252623 0.926253982770195 0  0.1235866354816217 0.9370696032148178 0  0.1212576294634056 0.9476645488952582 0  0.1190734945680743 0.9580419699947785 0  0.1170270419973136 0.9682050709600152 0  0.1151114007074783 0.9781571124265547 0  0.1133200055160031 0.9879013993486245 0  0.1116465857084123 0.9974412684028026 0  0.1100851540973415 1.00678007446057 0  0.1086299919107812 1.015921205370188 0  0.1072756432488249 1.024868042116264 0  0.1060168996208661 1.033623982063629 0  0.1048487921770971 1.042192417627859 0  0.1037665809790429 1.050576736266659 0  0.1027657469680525 1.058780303045589 0  0.1018419796222241 1.066806480626017 0  0.1009911707048814 1.074658604354542 0  0.100209404358178 1.082339989509986 0  0.09949294970732381 1.089853919786047 0  0.09883825188846673 1.097203654372538 0  0.09824192517424879 1.104392417551853 0  0.09770074530898887 1.111423399342931 0  0.09721164246300873 1.118299753112525 0  0.09677169442723854 1.125024593837347 0  0.09637812005447888 1.131600997033756 0  0.09602827298084238 1.138031997847958 0  0.09571963585538867 1.144320585137491 0  0.09544981410873254 1.150469709236281 0  0.09521653091090854 1.156482271096842 0  0.09501762139786152 1.162361132495572 0  0.09485102799585166 1.168109105493136 0  0.09471479534921778 1.17372895658593 0  0.09460706563777421 1.179223407979745 0  0.0945260742084173 1.184595133154879 0  0.09447014520952024 1.18984676120699 0  0.09443768756826221 1.194980871205597 0  0.09443806302859437 1.205108106364119 0  0.0944729919958105 1.210484287883107 0  0.09453577090937082 1.216142490300296 0  0.09463066380701091 1.222097360381834 0  0.0947624594889982 1.228364272753548 0  0.09493653111586542 1.234959359990207 0  0.09515890239686042 1.241899545953364 0  0.09543632088446197 1.249202574930454 0  0.09577633904503413 1.256887038135555 0  0.09618740432963668 1.264972406761361 0  0.0966789587196919 1.273479058714701 0  0.09726154875905446 1.282428302408976 0  0.09794694731159104 1.291842400140276 0  0.09874828856820561 1.301744593368398 0  0.09968021618774325 1.312159110985963 0  0.1007590472181439 1.323111179510956 0  0.1020029535614844 1.334627032832841 0  0.1034321610687219 1.346733904327509 0  0.1050691685317944 1.359460008750532 0  0.1069389890698906 1.372834517030006 0  0.1090694154101453 1.386887516567777 0  0.1114913103057413 1.401649949581689 0  0.1142389217184392 1.41715351493907 0  0.1173502356392664 1.433430591737466 0  0.1208673508568801 1.450514074661389 0  0.1248368950934375 1.468437217466946 0  0.1293104684030106 1.487233394167611 0  0.1343451326727159 1.506935853147407 0  0.1400039326793197 1.527577381161243 0  0.1463564603139997 1.549189915865717 0  0.1534794513310238 1.571804055040348 0  0.1614574289723265 1.59544850275497 0  0.1703833808249424 1.620149393439201 0  0.1803594611147896 1.645929471137086 0  0.191497735209273 1.672807165289779 0  0.2039209237677404 1.700795448389207 0  0.2177631713050063 1.729900546040858 0  0.2331708044748657 1.760120417463775 0  0.2503030499535754 1.791442962663554 0  0.2693327082756052 1.823843972070083 0  0.2904467283334415 1.857284740872639 0  0.313846664572799 1.891709354564414 0  0.3397489262043362 1.927041546768065 0  0.3683847768932553 1.963181136608806 0  0.4 2.044900547557741 0  0.4 2.087281022887292 0  0.4 2.127282861984825 0  0.4 2.165039579363555 0  0.4 2.200677161457211 0  0.4 2.234314567819979 0  0.4 2.266064051433231 0  0.4 2.29603157133185 0  0.4 2.324317153444571 0  0.4 2.351015177861111 0  0.4 2.376214759367253 0  0.3762147593670869 2.4 0  0.3510151778609575 2.4 0  0.3243171534446052 2.4 0  0.296031571332334 2.4 0  0.2660640514341884 2.4 0  0.2343145678211326 2.4 0  0.200677161458414 2.4 0  0.165039579364376 2.4 0  0.1272828619855727 2.4 0  0.08728102288768802 2.4 0  0.04490054755804584 2.4 0  0 2.351390275785884 0  0 2.304552731578128 0  0 2.259422753650416 0  0 2.215938095776203 0  0 2.174038769221176 0  0 2.133666973505663 0  0 2.094767030761372 0  0 2.057285274882487 0  0 2.021169996669198 0  0 1.98637139041763 0  0 1.952841448848309 0  0 1.920533905270079 0  0 1.889404216687487 0  0 1.859409431581987 0  0 1.830508174253126 0  0 1.802660578364919 0  0 1.775828229457246 0  0 1.749974120892053 0  0 1.725062579668715 0  0 1.701059245975984 0  0 1.677931008439425 0  0 1.655645964869692 0  0 1.634173369332893 0  0 1.613483613383766 0  0 1.593548147670557 0  0 1.574339474861461 0  0 1.555831095205801 0  0 1.537997486363343 0  0 1.520814036475161 0  0 1.504257050792596 0  0 1.488303689738582 0  0 1.47293194468338 0  0 1.458120611126952 0  0 1.443849259716804 0  0 1.430098202826807 0  0 1.416848471990003 0  0 1.404081790973001 0  0 1.391780548456538 0  0 1.379927775838647 0  0 1.36850712315392 0  0 1.357502837034801 0  0 1.346899736933002 0  0 1.336683196700207 0  0 1.326839124824946 0  0 1.317353941220879 0  0 1.308214562093801 0  0 1.299408378803474 0  0 1.290923246392895 0  0 1.282747456144235 0  0 1.274869735093633 0  0 1.267279214098316 0  0 1.259965423665274 0  0 1.252918273094548 0  0 1.246128044148505 0  0 1.239585367106648 0  0 1.23328121948346 0  0 1.227206903233693 0  0 1.221354040630691 0  0 1.215714557462727 0  0 1.210280675039678 0  0 1.205044896789031 0  0 1.194955103210978 0  0 1.189719324960339 0  0 1.1842854425373 0  0 1.178645959369345 0  0 1.172793096766355 0  0 1.166718780516599 0  0 1.160414632893424 0  0 1.15387195585158 0  0 1.147081726905552 0  0 1.14003457633484 0  0 1.132720785901815 0  0 1.125130264906515 0  0 1.117252543855931 0  0 1.109076753607291 0  0 1.100591621196733 0  0 1.091785437906426 0  0 1.082646058779372 0  0 1.07316087517533 0  0 1.063316803300096 0  0 1.053100263067329 0  0 1.042497162965573 0  0 1.031492876846507 0  0 1.020072224161836 0  0 1.008219451544004 0  0 0.9959182090276039 0  0 0.9831515280106697 0  0 0.969901797173938 0  0 0.9561507402840164 0  0 0.9418793888739494 0  0 0.9270680553176084 0  0 0.9116963102624975 0  0 0.8957429492085807 0  0 0.8791859635261186 0  0 0.8620025136380454 0  0 0.8441689047957012 0  0 0.8256605251401634 0  0 0.8064518523311963 0  0 0.7865163866181252 0  0 0.7658266306691419 0  0 0.7443540351324957 0  0 0.7220689915629243 0  0 0.6989407540265372 0  0 0.6749374203339855 0  0 0.6500258791108374 0  0 0.6241717705458441 0  0 0.5973394216383467 0  0 0.5694918257499931 0  0 0.5405905684209703 0  0 0.5105957833153173 0  0 0.479466094732611 0  0 0.4471585511542315 0  0 0.4136286095847471 0  0 0.3788300033330131 0  0 0.3427147251195944 0  0 0.305232969240564 0  0 0.2663330264961172 0  0 0.225961230780293 0  0 0.1840619042249165 0  0 0.1405772463503563 0  0 0.09544726842240769 0  0 0.04860972421439458 0  0.04813671057256446 1.197473279821492 0  0.04895543136439754 1.151270788221793 0  0.04738437551928104 1.245081661106426 0  0.2256341401927007 0.335035210600554 0  0.0512759040765693 1.103565270882211 0  0.1570277503437201 0.4710961631110478 0  0.04891680688198799 1.294160758757891 0  0.05568190394618851 1.057427469737321 0  0.05765554841188782 1.003616718285677 0  0.1206184164719817 0.6010910013922988 0  0.2174958646397733 2.217495864639892 0  0.06616240375728431 1.175917411653735 0  0.09608236746672907 0.7063802628109249 0  0.02794287230014219 1.219415480129978 0  0.06431259901636358 1.220489754068911 0  0.02794535307324082 1.174496345043953 0  0.06296426494091534 0.9414057385563683 0  0.08050882020181049 0.7988485989880517 0  0.0719103235923903 0.86993553852932 0  0.1823275170984414 2.037281568815077 0  0.04971518892196945 1.344501211918876 0  0.2490207822396599 0.1848651832981602 0  0.052494558421043 1.396392612075255 0  0.1344185702276811 1.870543477222118 0  0.07221302203322316 1.197443967850841 0  0.06629456243276534 1.127713702579542 0  0.03033713389389925 1.127495065716931 0  0.02186182423217333 1.197477551605483 0  0.06191152475830487 1.458801491557402 0  0.1109984100569154 1.762901175174654 0 
[...]
<PointData  Vectors="f_652"> 
<DataArray  type="Float64"  Name="f_652"  NumberOfComponents="3" format="ascii">0.0000000000000000e+00 0.0000000000000000e+00 0.0000000000000000e+00  0.0000000000000000e+00 0.0000000000000000e+00 0.0000000000000000e+00  1.0617618238810340e-02 -4.9752489981921347e-03 0.0000000000000000e+00  1.0677041282770187e-02 1.0503694762484068e-01 0.0000000000000000e+00  0.0000000000000000e+00 1.0000000000000002e-01 0.0000000000000000e+00  0.0000000000000000e+00 1.0000000000000002e-01 0.0000000000000000e+00  1.0890578911603746e-01 4.9993096124207569e-02 0.0000000000000000e+00  1.0662704191236851e-01 5.0029744764010585e-02 0.0000000000000000e+00  0.0000000000000000e+00 0.0000000000000000e+00 0.0000000000000000e+00  0.0000000000000000e+00 0.0000000000000000e+00 0.0000000000000000e+00  0.0000000000000000e+00 0.0000000000000000e+00 0.0000000000000000e+00  0.0000000000000000e+00 0.0000000000000000e+00 0.0000000000000000e+00  0.0000000000000000e+00 0.0000000000000000e+00 0.0000000000000000e+00  0.0000000000000000e+00 0.0000000000000000e+00 0.0000000000000000e+00  0.0000000000000000e+00 0.0000000000000000e+00 0.0000000000000000e+00  1.5355181749734635e-04 -5.1024737573286184e-04 0.0000000000000000e+00  4.0041273682432833e-04 -1.0895230969503939e-03 0.0000000000000000e+00  8.8557927696266325e-04 -1.6541600415586812e-03 0.0000000000000000e+00  1.5844284429011716e-03 -2.2339508516808215e-03 0.0000000000000000e+00  2.4308107436982001e-03 -2.7330324089995428e-03 0.0000000000000000e+00  3.4460684630751486e-03 -3.2173260515544078e-03 0.0000000000000000e+00  4.5488359118427144e-03 -3.6556585370281936e-03 0.0000000000000000e+00  5.7261450999961964e-03 -4.0551677079808330e-03 0.0000000000000000e+00  6.9446170032488562e-03 -4.3806987431870290e-03 0.0000000000000000e+00  8.2008839664141214e-03 -4.6643074800519968e-03 0.0000000000000000e+00  9.4384529083571828e-03 -4.8646298873506388e-03 0.0000000000000000e+00  1.1539122291598036e-02 -4.3211910173584066e-03 0.0000000000000000e+00  1.2520317205041901e-02 -3.7591273326156075e-03 0.0000000000000000e+00  1.3573087982817006e-02 -3.2463481281877690e-03 0.0000000000000000e+00  1.4717487040286194e-02 -2.7313435075719365e-03 0.0000000000000000e+00  1.5944170393199612e-02 -2.2271647739908812e-03 0.0000000000000000e+00  1.7227656898587101e-02 -1.6891409003653862e-03 0.0000000000000000e+00  1.8593687355540529e-02 -1.1487768578481476e-03 0.0000000000000000e+00  2.0023996380539626e-02 -5.7757254445737105e-04 0.0000000000000000e+00  2.1535815093016369e-02 3.9632835072172828e-06 0.0000000000000000e+00  2.3095847141143374e-02 6.2586939754971801e-04 0.0000000000000000e+00  2.4706704537170152e-02 1.2743385974330046e-03 0.0000000000000000e+00  2.6379162144394196e-02 1.9444805210118040e-03 0.0000000000000000e+00  2.8112468254678634e-02 2.6137391187556641e-03 0.0000000000000000e+00  2.9897825623391081e-02 3.3194910602704804e-03 0.0000000000000000e+00  3.1743836763298276e-02 4.0436809753381748e-03 0.0000000000000000e+00  3.3613339413282109e-02 4.7913611965770767e-03 0.0000000000000000e+00  3.5546765672427635e-02 5.5548555004957152e-03 0.0000000000000000e+00  3.7514391384768253e-02 6.3506238722755822e-03 0.0000000000000000e+00  3.9524908098764903e-02 7.1473432216644806e-03 0.0000000000000000e+00  4.1559348071011491e-02 7.9647751414654109e-03 0.0000000000000000e+00  4.3640828273327735e-02 8.7856555342606252e-03 0.0000000000000000e+00  4.5733171557320429e-02 9.6315391432592878e-03 0.0000000000000000e+00  4.7866051898021511e-02 1.0491246477522302e-02 0.0000000000000000e+00  4.9996388260707923e-02 1.1366248932181923e-02 0.0000000000000000e+00  5.2149161967565402e-02 1.2249348818350903e-02 0.0000000000000000e+00  5.4321001769538954e-02 1.3132717067537322e-02 0.0000000000000000e+00  5.6480513850787548e-02 1.4035635946014516e-02 0.0000000000000000e+00  5.8644526606636868e-02 1.4945277299552350e-02 0.0000000000000000e+00  6.0811576025259446e-02 1.5858529862976999e-02 0.0000000000000000e+00  6.2957544111773941e-02 1.6781128534453835e-02 0.0000000000000000e+00  6.5095193455906378e-02 1.7709842151061264e-02 0.0000000000000000e+00  6.7195417919572273e-02 1.8637906450397455e-02 0.0000000000000000e+00  6.9278467656761628e-02 1.9573494355014549e-02 0.0000000000000000e+00  7.1330383155847152e-02 2.0513625301441747e-02 0.0000000000000000e+00  7.3351980504631417e-02 2.1451784933083185e-02 0.0000000000000000e+00  7.5325939548696860e-02 2.2389226348041771e-02 0.0000000000000000e+00  7.7261380936821972e-02 2.3330192572874719e-02 0.0000000000000000e+00  7.9133358093963463e-02 2.4264780033796649e-02 0.0000000000000000e+00  8.0964752117669944e-02 2.5199091617400179e-02 0.0000000000000000e+00  8.2734310225440783e-02 2.6128909391550308e-02 0.0000000000000000e+00  8.4451788874351896e-02 2.7058575184201562e-02 0.0000000000000000e+00  8.6109488046291718e-02 2.7978604808145891e-02 0.0000000000000000e+00  8.7691462270514470e-02 2.8886412007005004e-02 0.0000000000000000e+00  8.9217160888221292e-02 2.9800543706019252e-02 0.0000000000000000e+00  9.0674425668395023e-02 3.0694564256036189e-02 0.0000000000000000e+00  9.2058124044340717e-02 3.1582962325837002e-02 0.0000000000000000e+00  9.3378112526216875e-02 3.2475367111948976e-02 0.0000000000000000e+00  9.4632182564234571e-02 3.3342089408919098e-02 0.0000000000000000e+00  9.5807337406684623e-02 3.4199816968654845e-02 0.0000000000000000e+00  9.6918466846373494e-02 3.5063343961587792e-02 0.0000000000000000e+00  9.7957593605054502e-02 3.5894551738345708e-02 0.0000000000000000e+00  9.8931466278689845e-02 3.6723303015747583e-02 0.0000000000000000e+00  9.9839648668604411e-02 3.7550716567193512e-02 0.0000000000000000e+00  1.0067890999991115e-01 3.8349211895766344e-02 0.0000000000000000e+00  1.0145376608260977e-01 3.9152626898803354e-02 0.0000000000000000e+00  1.0216308630630308e-01 3.9929930004233290e-02 0.0000000000000000e+00  1.0280910801190898e-01 4.0697180089040379e-02 0.0000000000000000e+00  1.0339869793839054e-01 4.1442318530740797e-02 0.0000000000000000e+00  1.0393543188773816e-01 4.2185541616436596e-02 0.0000000000000000e+00  1.0440946387217720e-01 4.2913698668927643e-02 0.0000000000000000e+00  1.0483309054959172e-01 4.3634639673420024e-02 0.0000000000000000e+00  1.0520538641794336e-01 4.4336172126974056e-02 0.0000000000000000e+00  1.0552850270270805e-01 4.5016665181603979e-02 0.0000000000000000e+00  1.0580258196432411e-01 4.5686200394035426e-02 0.0000000000000000e+00  1.0603664344591125e-01 4.6353918927766871e-02 0.0000000000000000e+00  1.0622786883730481e-01 4.6994298963690451e-02 0.0000000000000000e+00  1.0637761272538533e-01 4.7626912182645510e-02 0.0000000000000000e+00  1.0649085906092506e-01 4.8251609088138955e-02 0.0000000000000000e+00  1.0656819871622031e-01 4.8855058300883186e-02 0.0000000000000000e+00  1.0661371888928038e-01 4.9446837103949266e-02 0.0000000000000000e+00  1.0660830209726688e-01 5.0618490641306899e-02 0.0000000000000000e+00  1.0655673400830125e-01 5.1236282362077432e-02 0.0000000000000000e+00  1.0646561305383515e-01 5.1893748873675129e-02 0.0000000000000000e+00  1.0633181030790440e-01 5.2578952708676852e-02 0.0000000000000000e+00  1.0614310565554781e-01 5.3297324396168091e-02 0.0000000000000000e+00  1.0588876064069511e-01 5.4063594317610805e-02 0.0000000000000000e+00  1.0557776042521119e-01 5.4854035155992985e-02 0.0000000000000000e+00  1.0519009746977444e-01 5.5681951083240588e-02 0.0000000000000000e+00  1.0472156543887538e-01 5.6559130482707234e-02 0.0000000000000000e+00  1.0415062399678368e-01 5.7475390668153270e-02 0.0000000000000000e+00  1.0347567856652450e-01 5.8442032531639362e-02 0.0000000000000000e+00  1.0268892476636635e-01 5.9443217212456455e-02 0.0000000000000000e+00  1.0177760639677411e-01 6.0491025573786952e-02 0.0000000000000000e+00  1.0073012958619529e-01 6.1575852638295230e-02 0.0000000000000000e+00  9.9524958173662081e-02 6.2722684310413376e-02 0.0000000000000000e+00  9.8174268169447312e-02 6.3898114089702876e-02 0.0000000000000000e+00  9.6636332791957602e-02 6.5139760870667682e-02 0.0000000000000000e+00  9.4948941066064607e-02 6.6398258994767229e-02 0.0000000000000000e+00  9.3045363658964264e-02 6.7736890683975495e-02 0.0000000000000000e+00  9.0957323396908971e-02 6.9099453197847882e-02 0.0000000000000000e+00  8.8668482231036280e-02 7.0511344354739033e-02 0.0000000000000000e+00  8.6178682525701489e-02 7.1958860469390637e-02 0.0000000000000000e+00  8.3479482738300734e-02 7.3443927792302841e-02 0.0000000000000000e+00  8.0583923615433456e-02 7.4950670723470988e-02 0.0000000000000000e+00  7.7505673770256897e-02 7.6497039005512191e-02 0.0000000000000000e+00  7.4243708431096081e-02 7.8066915125945976e-02 0.0000000000000000e+00  7.0824229717767806e-02 7.9665518579337999e-02 0.0000000000000000e+00  6.7250776142182611e-02 8.1286365157179394e-02 0.0000000000000000e+00  6.3562291433341647e-02 8.2907819003351230e-02 0.0000000000000000e+00  5.9790966474691482e-02 8.4522121895746177e-02 0.0000000000000000e+00  5.5898944633353473e-02 8.6170389614206200e-02 0.0000000000000000e+00  5.2026724091570248e-02 8.7772120860570832e-02 0.0000000000000000e+00  4.8090241341020037e-02 8.9380723026639700e-02 0.0000000000000000e+00  4.4220437203308746e-02 9.0953223492873519e-02 0.0000000000000000e+00  4.0368076874528251e-02 9.2447161603672182e-02 0.0000000000000000e+00  3.6615550124439546e-02 9.4003758949755253e-02 0.0000000000000000e+00  3.3021401446335162e-02 9.5398113624868441e-02 0.0000000000000000e+00  2.9453432318894798e-02 9.6858153979590689e-02 0.0000000000000000e+00  2.6116106661194394e-02 9.8154974133942016e-02 0.0000000000000000e+00  2.2969015119292609e-02 9.9434901802707129e-02 0.0000000000000000e+00  2.0032754829019995e-02 1.0063695584323991e-01 0.0000000000000000e+00  1.7259024218018205e-02 1.0171339052984101e-01 0.0000000000000000e+00  1.4789895643227541e-02 1.0277742011326862e-01 0.0000000000000000e+00  1.2600885846960848e-02 1.0382295073905658e-01 0.0000000000000000e+00  8.4417870467818033e-03 1.0473043463683128e-01 0.0000000000000000e+00  6.4788462317924792e-03 1.0428383370664264e-01 0.0000000000000000e+00  4.8504565794618608e-03 1.0379975826159911e-01 0.0000000000000000e+00  3.5046812912635774e-03 1.0328240016482343e-01 0.0000000000000000e+00  2.4451332156993273e-03 1.0278154835022096e-01 0.0000000000000000e+00  1.6188471188431082e-03 1.0226452624978807e-01 0.0000000000000000e+00  9.9225460491537748e-04 1.0180993131203310e-01 0.0000000000000000e+00  5.8658672631405691e-04 1.0135237024981543e-01 0.0000000000000000e+00  3.1345472278723502e-04 1.0094263737961826e-01 0.0000000000000000e+00  1.9369903349262136e-04 1.0058697417899479e-01 0.0000000000000000e+00  1.1001910988794185e-04 1.0027780994381201e-01 0.0000000000000000e+00  0.0000000000000000e+00 1.0000000000000002e-01 0.0000000000000000e+00  0.0000000000000000e+00 1.0000000000000002e-01 0.0000000000000000e+00  0.0000000000000000e+00 1.0000000000000001e-01 0.0000000000000000e+00  0.0000000000000000e+00 1.0000000000000002e-01 0.0000000000000000e+00  0.0000000000000000e+00 1.0000000000000001e-01 0.0000000000000000e+00  0.0000000000000000e+00 1.0000000000000001e-01 0.0000000000000000e+00  0.0000000000000000e+00 1.0000000000000001e-01 0.0000000000000000e+00  0.0000000000000000e+00 1.0000000000000001e-01 0.0000000000000000e+00  0.0000000000000000e+00 1.0000000000000001e-01 0.0000000000000000e+00  0.0000000000000000e+00 1.0000000000000001e-01 0.0000000000000000e+00  0.0000000000000000e+00 1.0000000000000001e-01 0.0000000000000000e+00  1.4644855268514587e-03 9.7862718355428382e-02 0.0000000000000000e+00  2.2857082660170482e-03 9.6015589614560609e-02 0.0000000000000000e+00  3.1677653930794851e-03 9.4233581821681206e-02 0.0000000000000000e+00  4.1827119216360144e-03 9.2503639839261506e-02 0.0000000000000000e+00  5.3645483178930082e-03 9.0794341263125189e-02 0.0000000000000000e+00  6.7188987529645883e-03 8.9128026013729572e-02 0.0000000000000000e+00  8.2258004769342700e-03 8.7487171992754312e-02 0.0000000000000000e+00  9.8658804121788349e-03 8.5850966095017897e-02 0.0000000000000000e+00  1.1651494485204479e-02 8.4262154094536329e-02 0.0000000000000000e+00  1.3567019090757313e-02 8.2673679428752922e-02 0.0000000000000000e+00  1.5611038950412246e-02 8.1108172014503627e-02 0.0000000000000000e+00  1.7778925784265480e-02 7.9555876711598417e-02 0.0000000000000000e+00  2.0072806074655419e-02 7.8021068775674787e-02 0.0000000000000000e+00  2.2477121128598201e-02 7.6482669398058561e-02 0.0000000000000000e+00  2.5010228449299034e-02 7.4975551446691352e-02 0.0000000000000000e+00  2.7642419986172433e-02 7.3477725968216168e-02 0.0000000000000000e+00  3.0392108517965252e-02 7.2009403815758349e-02 0.0000000000000000e+00  3.3222905304806767e-02 7.0550600860583526e-02 0.0000000000000000e+00  3.6134618158334082e-02 6.9146759461393884e-02 0.0000000000000000e+00  3.9132804782929353e-02 6.7779177632714988e-02 0.0000000000000000e+00  4.2203220545524493e-02 6.6465794454162563e-02 0.0000000000000000e+00  4.5300056149625158e-02 6.5176328897848662e-02 0.0000000000000000e+00  4.8439879880816071e-02 6.3946106572771805e-02 0.0000000000000000e+00  5.1591400153719588e-02 6.2776384769830371e-02 0.0000000000000000e+00  5.4755293235355218e-02 6.1672682902924318e-02 0.0000000000000000e+00  5.7904831674131151e-02 6.0608105714497214e-02 0.0000000000000000e+00  6.1028335515754789e-02 5.9613746377841316e-02 0.0000000000000000e+00  6.4114886760985951e-02 5.8680018116409993e-02 0.0000000000000000e+00  6.7141921965910040e-02 5.7809015311764723e-02 0.0000000000000000e+00  7.0106268413997308e-02 5.6998130713007404e-02 0.0000000000000000e+00  7.2983847375617347e-02 5.6250900044026129e-02 0.0000000000000000e+00  7.5778775163151652e-02 5.5561641868421864e-02 0.0000000000000000e+00  7.8464513375638201e-02 5.4928164745596086e-02 0.0000000000000000e+00  8.1044154956730272e-02 5.4352528840802841e-02 0.0000000000000000e+00  8.3510128533553898e-02 5.3830455991832171e-02 0.0000000000000000e+00  8.5855058241433371e-02 5.3354560635195510e-02 0.0000000000000000e+00  8.8073753849236172e-02 5.2932445432204982e-02 0.0000000000000000e+00  9.0161448386375478e-02 5.2561018332489676e-02 0.0000000000000000e+00  9.2116279834654757e-02 5.2222047469749129e-02 0.0000000000000000e+00  9.3940352987678194e-02 5.1918720884048711e-02 0.0000000000000000e+00  9.5643286574557340e-02 5.1657792094956391e-02 0.0000000000000000e+00  9.7208332177134121e-02 5.1422295142565390e-02 0.0000000000000000e+00  9.8659739679005348e-02 5.1222549758522161e-02 0.0000000000000000e+00  9.9980131777343231e-02 5.1042911546894928e-02 0.0000000000000000e+00  1.0118700813685949e-01 5.0893434075959948e-02 0.0000000000000000e+00  1.0228070842396803e-01 5.0755336885858530e-02 0.0000000000000000e+00  1.0326966537647443e-01 5.0645588917048956e-02 0.0000000000000000e+00  1.0415347641258324e-01 5.0548171026182150e-02 0.0000000000000000e+00  1.0494415705618110e-01 5.0461560063463175e-02 0.0000000000000000e+00  1.0564122887309881e-01 5.0383108153644961e-02 0.0000000000000000e+00  1.0625508732941424e-01 5.0325118353151677e-02 0.0000000000000000e+00  1.0679073591335617e-01 5.0269968705455526e-02 0.0000000000000000e+00  1.0724773219963325e-01 5.0225339272799797e-02 0.0000000000000000e+00  1.0763612330130311e-01 5.0187640234367767e-02 0.0000000000000000e+00  1.0796850466468477e-01 5.0147775810517443e-02 0.0000000000000000e+00  1.0823669643724249e-01 5.0115826377697431e-02 0.0000000000000000e+00  1.0845713687068050e-01 5.0094498661094021e-02 0.0000000000000000e+00  1.0862698820636904e-01 5.0068602934621120e-02 0.0000000000000000e+00  1.0875206568571855e-01 5.0046480835192864e-02 0.0000000000000000e+00  1.0883786832653861e-01 5.0030704106477447e-02 0.0000000000000000e+00  1.0888771034097093e-01 5.0010665447473061e-02 0.0000000000000000e+00  1.0889279022894544e-01 4.9978778996489677e-02 0.0000000000000000e+00  1.0884567666477508e-01 4.9960180046635959e-02 0.0000000000000000e+00  1.0876459152178358e-01 4.9938709922103482e-02 0.0000000000000000e+00  1.0864219035321140e-01 4.9922630267902827e-02 0.0000000000000000e+00  1.0847805236118303e-01 4.9896567339236669e-02 0.0000000000000000e+00  1.0826631841834333e-01 4.9869477834488633e-02 0.0000000000000000e+00  1.0799671922037135e-01 4.9844569569268880e-02 0.0000000000000000e+00  1.0767265898459151e-01 4.9809278265123276e-02 0.0000000000000000e+00  1.0728448157194041e-01 4.9764831816669519e-02 0.0000000000000000e+00  1.0682943781077220e-01 4.9724058937465593e-02 0.0000000000000000e+00  1.0630290674227470e-01 4.9670207294491106e-02 0.0000000000000000e+00  1.0568943735522632e-01 4.9615594562398849e-02 0.0000000000000000e+00  1.0500287217481878e-01 4.9537205548460479e-02 0.0000000000000000e+00  1.0421585266848674e-01 4.9452745125939779e-02 0.0000000000000000e+00  1.0333856858796393e-01 4.9356828827042946e-02 0.0000000000000000e+00  1.0235000654124664e-01 4.9251487675911913e-02 0.0000000000000000e+00  1.0125990894452538e-01 4.9118069639289288e-02 0.0000000000000000e+00  1.0006187324974983e-01 4.8956768472959711e-02 0.0000000000000000e+00  9.8737943251993449e-02 4.8785805651976689e-02 0.0000000000000000e+00  9.7296182680582918e-02 4.8590244047836198e-02 0.0000000000000000e+00  9.5729723961061219e-02 4.8357213703810922e-02 0.0000000000000000e+00  9.4027466544031768e-02 4.8098976063332667e-02 0.0000000000000000e+00  9.2208938605024646e-02 4.7797148483992448e-02 0.0000000000000000e+00  9.0251544845046466e-02 4.7463535276984471e-02 0.0000000000000000e+00  8.8163831765182360e-02 4.7093308237341355e-02 0.0000000000000000e+00  8.5937081100698240e-02 4.6671372936175175e-02 0.0000000000000000e+00  8.3596740616207268e-02 4.6200121276908208e-02 0.0000000000000000e+00  8.1124111705866905e-02 4.5686328604059183e-02 0.0000000000000000e+00  7.8540135471762362e-02 4.5111544292389463e-02 0.0000000000000000e+00  7.5846902473945432e-02 4.4480821379659537e-02 0.0000000000000000e+00  7.3045320701993974e-02 4.3795945665542881e-02 0.0000000000000000e+00  7.0159096721025785e-02 4.3050189966584537e-02 0.0000000000000000e+00  6.7184648475849762e-02 4.2236813588782902e-02 0.0000000000000000e+00  6.4147261322580251e-02 4.1371180745465988e-02 0.0000000000000000e+00  6.1056296184344730e-02 4.0437623648799423e-02 0.0000000000000000e+00  5.7912736112378418e-02 3.9443233550041062e-02 0.0000000000000000e+00  5.4752018743844770e-02 3.8379639154090303e-02 0.0000000000000000e+00  5.1571669219797861e-02 3.7261658651409083e-02 0.0000000000000000e+00  4.8432291127046376e-02 3.6089109381445640e-02 0.0000000000000000e+00  4.5255362427028926e-02 3.4866740710470988e-02 0.0000000000000000e+00  4.2148163302524078e-02 3.3570985759036318e-02 0.0000000000000000e+00  3.9084606138667849e-02 3.2242176623512760e-02 0.0000000000000000e+00  3.6087106412153451e-02 3.0885141034448792e-02 0.0000000000000000e+00  3.3156414465512069e-02 2.9454116872301851e-02 0.0000000000000000e+00  3.0310980872453906e-02 2.8016195606978083e-02 0.0000000000000000e+00  2.7582104931842880e-02 2.6519115947880267e-02 0.0000000000000000e+00  2.4927311395195301e-02 2.5048471330001341e-02 0.0000000000000000e+00  2.2396848597846349e-02 2.3529418901523061e-02 0.0000000000000000e+00  1.9977732698300266e-02 2.1981766840292100e-02 0.0000000000000000e+00  1.7700824406878278e-02 2.0428324032832391e-02 0.0000000000000000e+00  1.5528274214143592e-02 1.8870546299532408e-02 0.0000000000000000e+00  1.3507835425028134e-02 1.7273742246970789e-02 0.0000000000000000e+00  1.1575799419130750e-02 1.5705980860589185e-02 0.0000000000000000e+00  9.8100775050829116e-03 1.4108911798833919e-02 0.0000000000000000e+00  8.1513549039994530e-03 1.2485259850075569e-02 0.0000000000000000e+00  6.6615667750176246e-03 1.0835898087701022e-02 0.0000000000000000e+00  5.3302010068108563e-03 9.1546766485769530e-03 0.0000000000000000e+00  4.1472713150750825e-03 7.4649215581027613e-03 0.0000000000000000e+00  3.1493722732425060e-03 5.7320303854451827e-03 0.0000000000000000e+00  2.2885019624704567e-03 3.9452043353754998e-03 0.0000000000000000e+00  1.4350541020530687e-03 2.1247904203338108e-03 0.000000000000