<?xml version="1.0"?>
<VTKFile type="UnstructuredGrid"  version="0.1"  >
<UnstructuredGrid>
<Piece  NumberOfPoints="2064" NumberOfCells="3842">
<Points>
<DataArray  type="Float64"  NumberOfComponents="3"  format="ascii">0 0 0  0.4 0 0  0.4 0.4 0  0.4 2 0  0.4 2.4 0  0 2.4 0  0 1.2 0  0.09442719099991592 1.2 0  0.04999999999991419 0 0  0.09999999999976655 0 0  0.1499999999996174 0 0  0.1999999999994737 0 0  0.2499999999996012 0 0  0.2999999999997341 0 0  0.3499999999998725 0 0  0.4 0.04490054755780609 0  0.4 0.08728102288719632 0  0.4 0.127282861984852 0  0.4 0.1650395793634534 0  0.4 0.2006771614573222 0  0.4 0.2343145678202487 0  0.4 0.2660640514334936 0  0.4 0.2960315713318087 0  0.4 0.3243171534442337 0  0.4 0.3510151778607238 0  0.4 0.3762147593669765 0  0.3838325644673298 0.4184519041479398 0  0.3683953300346307 0.4368060584116434 0  0.3536615979029293 0.4550435590956501 0  0.3396051856135377 0.473147237722841 0  0.3262004928426353 0.4911015157475286 0  0.3134225038405827 0.5088923356151951 0  0.3012468350136632 0.5265070301161103 0  0.289649727202514 0.5439342653019726 0  0.2786080797806054 0.5611639229961951 0  0.2680994518128559 0.5781870282993612 0  0.2581020577925817 0.594995687384956 0  0.2485947966955289 0.6115829684453767 0  0.2395572159226798 0.6279428912420084 0  0.2309695402541045 0.6440703056409012 0  0.2228126456010115 0.6599608661499604 0  0.2150680649468926 0.6756109488118054 0  0.2077179652425745 0.6910176244172292 0  0.2007451581747424 0.7061785635724216 0  0.1941330685533778 0.7210920296031775 0  0.187865731362808 0.7357568136786556 0  0.1819277784059361 0.7501721918577611 0  0.1763044223842591 0.7643378897548474 0  0.1709814462523012 0.7782540354567948 0  0.1659451816940687 0.7919211416000106 0  0.1611825004958043 0.8053400559415214 0  0.1566807969567119 0.8185119361740301 0  0.1524279714485859 0.8314382242497815 0  0.1484124145310832 0.8441206213966692 0  0.1446229953612439 0.8565610509978405 0  0.1410490406726472 0.8687616532651306 0  0.1376803237536894 0.8807247502294573 0  0.1345070480820316 0.8924528295474728 0  0.1315198313379682 0.9039485300761398 0  0.1287096917422226 0.9152146212945773 0  0.1260680347252623 0.926253982770195 0  0.1235866354816217 0.9370696032148178 0  0.1212576294634056 0.9476645488952582 0  0.1190734945680743 0.9580419699947785 0  0.1170270419973136 0.9682050709600152 0  0.1151114007074783 0.9781571124265547 0  0.1133200055160031 0.9879013993486245 0  0.1116465857084123 0.9974412684028026 0  0.1100851540973415 1.00678007446057 0  0.1086299919107812 1.015921205370188 0  0.1072756432488249 1.024868042116264 0  0.1060168996208661 1.033623982063629 0  0.1048487921770971 1.042192417627859 0  0.1037665809790429 1.050576736266659 0  0.1027657469680525 1.058780303045589 0  0.1018419796222241 1.066806480626017 0  0.1009911707048814 1.074658604354542 0  0.100209404358178 1.082339989509986 0  0.09949294970732381 1.089853919786047 0  0.09883825188846673 1.097203654372538 0  0.09824192517424879 1.104392417551853 0  0.09770074530898887 1.111423399342931 0  0.09721164246300873 1.118299753112525 0  0.09677169442723854 1.125024593837347 0  0.09637812005447888 1.131600997033756 0  0.09602827298084238 1.138031997847958 0  0.09571963585538867 1.144320585137491 0  0.09544981410873254 1.150469709236281 0  0.09521653091090854 1.156482271096842 0  0.09501762139786152 1.162361132495572 0  0.09485102799585166 1.168109105493136 0  0.09471479534921778 1.17372895658593 0  0.09460706563777421 1.179223407979745 0  0.0945260742084173 1.184595133154879 0  0.09447014520952024 1.18984676120699 0  0.09443768756826221 1.194980871205597 0  0.09443806302859437 1.205108106364119 0  0.0944729919958105 1.210484287883107 0  0.09453577090937082 1.216142490300296 0  0.09463066380701091 1.222097360381834 0  0.0947624594889982 1.228364272753548 0  0.09493653111586542 1.234959359990207 0  0.09515890239686042 1.241899545953364 0  0.09543632088446197 1.249202574930454 0  0.09577633904503413 1.256887038135555 0  0.09618740432963668 1.264972406761361 0  0.0966789587196919 1.273479058714701 0  0.09726154875905446 1.282428302408976 0  0.09794694731159104 1.291842400140276 0  0.09874828856820561 1.301744593368398 0  0.09968021618774325 1.312159110985963 0  0.1007590472181439 1.323111179510956 0  0.1020029535614844 1.334627032832841 0  0.1034321610687219 1.346733904327509 0  0.1050691685317944 1.359460008750532 0  0.1069389890698906 1.372834517030006 0  0.1090694154101453 1.386887516567777 0  0.1114913103057413 1.401649949581689 0  0.1142389217184392 1.41715351493907 0  0.1173502356392664 1.433430591737466 0  0.1208673508568801 1.450514074661389 0  0.1248368950934375 1.468437217466946 0  0.1293104684030106 1.487233394167611 0  0.1343451326727159 1.506935853147407 0  0.1400039326793197 1.527577381161243 0  0.1463564603139997 1.549189915865717 0  0.1534794513310238 1.571804055040348 0  0.1614574289723265 1.59544850275497 0  0.1703833808249424 1.620149393439201 0  0.1803594611147896 1.645929471137086 0  0.191497735209273 1.672807165289779 0  0.2039209237677404 1.700795448389207 0  0.2177631713050063 1.729900546040858 0  0.2331708044748657 1.760120417463775 0  0.2503030499535754 1.791442962663554 0  0.2693327082756052 1.823843972070083 0  0.2904467283334415 1.857284740872639 0  0.313846664572799 1.891709354564414 0  0.3397489262043362 1.927041546768065 0  0.3683847768932553 1.963181136608806 0  0.4 2.044900547557741 0  0.4 2.087281022887292 0  0.4 2.127282861984825 0  0.4 2.165039579363555 0  0.4 2.200677161457211 0  0.4 2.234314567819979 0  0.4 2.266064051433231 0  0.4 2.29603157133185 0  0.4 2.324317153444571 0  0.4 2.351015177861111 0  0.4 2.376214759367253 0  0.3762147593670869 2.4 0  0.3510151778609575 2.4 0  0.3243171534446052 2.4 0  0.296031571332334 2.4 0  0.2660640514341884 2.4 0  0.2343145678211326 2.4 0  0.200677161458414 2.4 0  0.165039579364376 2.4 0  0.1272828619855727 2.4 0  0.08728102288768802 2.4 0  0.04490054755804584 2.4 0  0 2.351390275785884 0  0 2.304552731578128 0  0 2.259422753650416 0  0 2.215938095776203 0  0 2.174038769221176 0  0 2.133666973505663 0  0 2.094767030761372 0  0 2.057285274882487 0  0 2.021169996669198 0  0 1.98637139041763 0  0 1.952841448848309 0  0 1.920533905270079 0  0 1.889404216687487 0  0 1.859409431581987 0  0 1.830508174253126 0  0 1.802660578364919 0  0 1.775828229457246 0  0 1.749974120892053 0  0 1.725062579668715 0  0 1.701059245975984 0  0 1.677931008439425 0  0 1.655645964869692 0  0 1.634173369332893 0  0 1.613483613383766 0  0 1.593548147670557 0  0 1.574339474861461 0  0 1.555831095205801 0  0 1.537997486363343 0  0 1.520814036475161 0  0 1.504257050792596 0  0 1.488303689738582 0  0 1.47293194468338 0  0 1.458120611126952 0  0 1.443849259716804 0  0 1.430098202826807 0  0 1.416848471990003 0  0 1.404081790973001 0  0 1.391780548456538 0  0 1.379927775838647 0  0 1.36850712315392 0  0 1.357502837034801 0  0 1.346899736933002 0  0 1.336683196700207 0  0 1.326839124824946 0  0 1.317353941220879 0  0 1.308214562093801 0  0 1.299408378803474 0  0 1.290923246392895 0  0 1.282747456144235 0  0 1.274869735093633 0  0 1.267279214098316 0  0 1.259965423665274 0  0 1.252918273094548 0  0 1.246128044148505 0  0 1.239585367106648 0  0 1.23328121948346 0  0 1.227206903233693 0  0 1.221354040630691 0  0 1.215714557462727 0  0 1.210280675039678 0  0 1.205044896789031 0  0 1.194955103210978 0  0 1.189719324960339 0  0 1.1842854425373 0  0 1.178645959369345 0  0 1.172793096766355 0  0 1.166718780516599 0  0 1.160414632893424 0  0 1.15387195585158 0  0 1.147081726905552 0  0 1.14003457633484 0  0 1.132720785901815 0  0 1.125130264906515 0  0 1.117252543855931 0  0 1.109076753607291 0  0 1.100591621196733 0  0 1.091785437906426 0  0 1.082646058779372 0  0 1.07316087517533 0  0 1.063316803300096 0  0 1.053100263067329 0  0 1.042497162965573 0  0 1.031492876846507 0  0 1.020072224161836 0  0 1.008219451544004 0  0 0.9959182090276039 0  0 0.9831515280106697 0  0 0.969901797173938 0  0 0.9561507402840164 0  0 0.9418793888739494 0  0 0.9270680553176084 0  0 0.9116963102624975 0  0 0.8957429492085807 0  0 0.8791859635261186 0  0 0.8620025136380454 0  0 0.8441689047957012 0  0 0.8256605251401634 0  0 0.8064518523311963 0  0 0.7865163866181252 0  0 0.7658266306691419 0  0 0.7443540351324957 0  0 0.7220689915629243 0  0 0.6989407540265372 0  0 0.6749374203339855 0  0 0.6500258791108374 0  0 0.6241717705458441 0  0 0.5973394216383467 0  0 0.5694918257499931 0  0 0.5405905684209703 0  0 0.5105957833153173 0  0 0.479466094732611 0  0 0.4471585511542315 0  0 0.4136286095847471 0  0 0.3788300033330131 0  0 0.3427147251195944 0  0 0.305232969240564 0  0 0.2663330264961172 0  0 0.225961230780293 0  0 0.1840619042249165 0  0 0.1405772463503563 0  0 0.09544726842240769 0  0 0.04860972421439458 0  0.04813671057256446 1.197473279821492 0  0.04895543136439754 1.151270788221793 0  0.04738437551928104 1.245081661106426 0  0.2256341401927007 0.335035210600554 0  0.0512759040765693 1.103565270882211 0  0.1570277503437201 0.4710961631110478 0  0.04891680688198799 1.294160758757891 0  0.05568190394618851 1.057427469737321 0  0.05765554841188782 1.003616718285677 0  0.1206184164719817 0.6010910013922988 0  0.2174958646397733 2.217495864639892 0  0.06616240375728431 1.175917411653735 0  0.09608236746672907 0.7063802628109249 0  0.02794287230014219 1.219415480129978 0  0.06431259901636358 1.220489754068911 0  0.02794535307324082 1.174496345043953 0  0.06296426494091534 0.9414057385563683 0  0.08050882020181049 0.7988485989880517 0  0.0719103235923903 0.86993553852932 0  0.1823275170984414 2.037281568815077 0  0.04971518892196945 1.344501211918876 0  0.2490207822396599 0.1848651832981602 0  0.052494558421043 1.396392612075255 0  0.1344185702276811 1.870543477222118 0  0.07221302203322316 1.197443967850841 0  0.06629456243276534 1.127713702579542 0  0.03033713389389925 1.127495065716931 0  0.02186182423217333 1.197477551605483 0  0.06191152475830487 1.458801491557402 0  0.1109984100569154 1.762901175174654 0 
[...]
<PointData  Vectors="f_1123"> 
<DataArray  type="Float64"  Name="f_1123"  NumberOfComponents="3" format="ascii">0.0000000000000000e+00 0.0000000000000000e+00 0.0000000000000000e+00  0.0000000000000000e+00 0.0000000000000000e+00 0.0000000000000000e+00  1.0602507492089932e-02 -4.9704133251257847e-03 0.0000000000000000e+00  1.0493417086327178e-02 1.0503117034239358e-01 0.0000000000000000e+00  -7.5977189062944391e-04 1.0000000000000001e-01 0.0000000000000000e+00  1.5532050758489226e-03 9.9999999999999992e-02 0.0000000000000000e+00  1.0877715452006492e-01 4.9891110925788310e-02 0.0000000000000000e+00  1.0650423406689161e-01 4.9910032588975965e-02 0.0000000000000000e+00  0.0000000000000000e+00 0.0000000000000000e+00 0.0000000000000000e+00  0.0000000000000000e+00 0.0000000000000000e+00 0.0000000000000000e+00  0.0000000000000000e+00 0.0000000000000000e+00 0.0000000000000000e+00  0.0000000000000000e+00 0.0000000000000000e+00 0.0000000000000000e+00  0.0000000000000000e+00 0.0000000000000000e+00 0.0000000000000000e+00  0.0000000000000000e+00 0.0000000000000000e+00 0.0000000000000000e+00  0.0000000000000000e+00 0.0000000000000000e+00 0.0000000000000000e+00  1.5408567282158161e-04 -5.1020292473321477e-04 0.0000000000000000e+00  4.0098881865237757e-04 -1.0890636461268080e-03 0.0000000000000000e+00  8.8569324714197703e-04 -1.6531854688344447e-03 0.0000000000000000e+00  1.5836552892795606e-03 -2.2323601137479187e-03 0.0000000000000000e+00  2.4288441781256560e-03 -2.7309228219635942e-03 0.0000000000000000e+00  3.4425850040080636e-03 -3.2146756944707771e-03 0.0000000000000000e+00  4.5436527018392269e-03 -3.6524994960407237e-03 0.0000000000000000e+00  5.7191117659897437e-03 -4.0515210626515695e-03 0.0000000000000000e+00  6.9356251018704053e-03 -4.3766560646516656e-03 0.0000000000000000e+00  8.1898453847538237e-03 -4.6598917214646261e-03 0.0000000000000000e+00  9.4253535981139343e-03 -4.8599504555993647e-03 0.0000000000000000e+00  1.1522420158071742e-02 -4.3175344045248360e-03 0.0000000000000000e+00  1.2501911794260249e-02 -3.7565605695696318e-03 0.0000000000000000e+00  1.3552848534894456e-02 -3.2448383887779854e-03 0.0000000000000000e+00  1.4695260922864634e-02 -2.7309348390013523e-03 0.0000000000000000e+00  1.5919822940134387e-02 -2.2278723990848642e-03 0.0000000000000000e+00  1.7201098721923519e-02 -1.6910533274546780e-03 0.0000000000000000e+00  1.8564780930390871e-02 -1.1519285543408106e-03 0.0000000000000000e+00  1.9992645722322924e-02 -5.8203867940300900e-04 0.0000000000000000e+00  2.1501887909215037e-02 -1.8613014501947998e-06 0.0000000000000000e+00  2.3059272967110550e-02 6.1860004489573076e-04 0.0000000000000000e+00  2.4667407451747284e-02 1.2655591482165949e-03 0.0000000000000000e+00  2.6337051822284387e-02 1.9341338038727821e-03 0.0000000000000000e+00  2.8067451220910960e-02 2.6018011990922439e-03 0.0000000000000000e+00  2.9849840082927577e-02 3.3058916586777465e-03 0.0000000000000000e+00  3.1692799536872103e-02 4.0283615537729930e-03 0.0000000000000000e+00  3.3559235601662553e-02 4.7742685223259185e-03 0.0000000000000000e+00  3.5489509381239522e-02 5.5359504738922236e-03 0.0000000000000000e+00  3.7453959693767670e-02 6.3298433151465954e-03 0.0000000000000000e+00  3.9461241157442477e-02 7.1246609937375867e-03 0.0000000000000000e+00  4.1492455990677808e-02 7.9401536989638938e-03 0.0000000000000000e+00  4.3570661020324565e-02 8.7590635982161894e-03 0.0000000000000000e+00  4.5659757386057057e-02 9.6029391940766779e-03 0.0000000000000000e+00  4.7789352927386300e-02 1.0460594768778570e-02 0.0000000000000000e+00  4.9916451918367216e-02 1.1333525670001217e-02 0.0000000000000000e+00  5.2066000150896082e-02 1.2214526393610863e-02 0.0000000000000000e+00  5.4234626351230102e-02 1.3095772579628068e-02 0.0000000000000000e+00  5.6391000364164570e-02 1.3996554340298445e-02 0.0000000000000000e+00  5.8551920929809667e-02 1.4904036649449904e-02 0.0000000000000000e+00  6.0715914710047704e-02 1.5815110815383254e-02 0.0000000000000000e+00  6.2858919905349767e-02 1.6735528555899513e-02 0.0000000000000000e+00  6.4993670882623811e-02 1.7662036901986755e-02 0.0000000000000000e+00  6.7091121929304443e-02 1.8587902945282102e-02 0.0000000000000000e+00  6.9171465532818485e-02 1.9521281030112855e-02 0.0000000000000000e+00  7.1220798300067459e-02 2.0459205425771981e-02 0.0000000000000000e+00  7.3239901943384686e-02 2.1395150690849261e-02 0.0000000000000000e+00  7.5211501786840107e-02 2.2330397015828857e-02 0.0000000000000000e+00  7.7144696623233103e-02 2.3269156381006868e-02 0.0000000000000000e+00  7.9014585725069489e-02 2.4201558531078800e-02 0.0000000000000000e+00  8.0843993865834629e-02 2.5133693812900922e-02 0.0000000000000000e+00  8.2611730292898630e-02 2.6061357863407651e-02 0.0000000000000000e+00  8.4327505849025194e-02 2.6988862979793665e-02 0.0000000000000000e+00  8.5983633496845277e-02 2.7906769262269870e-02 0.0000000000000000e+00  8.7564205397728551e-02 2.8812492477127895e-02 0.0000000000000000e+00  8.9088627846560436e-02 2.9724521656391542e-02 0.0000000000000000e+00  9.0544752298453351e-02 3.0616502073437357e-02 0.0000000000000000e+00  9.1927465383852075e-02 3.1502879853785720e-02 0.0000000000000000e+00  9.3246596483374786e-02 3.2393254533314673e-02 0.0000000000000000e+00  9.4499928555594526e-02 3.3258020301014983e-02 0.0000000000000000e+00  9.5674499156174944e-02 3.4113820815177096e-02 0.0000000000000000e+00  9.6785162815934467e-02 3.4975410564456723e-02 0.0000000000000000e+00  9.7823946657833796e-02 3.5804765955415409e-02 0.0000000000000000e+00  9.8797595289552828e-02 3.6631677597920499e-02 0.0000000000000000e+00  9.9705660465501195e-02 3.7457261453933154e-02 0.0000000000000000e+00  1.0054491382078250e-01 3.8254000217446918e-02 0.0000000000000000e+00  1.0131987116011926e-01 3.9055656376930176e-02 0.0000000000000000e+00  1.0202938887907860e-01 3.9831266353480242e-02 0.0000000000000000e+00  1.0267570744543017e-01 4.0596854615225296e-02 0.0000000000000000e+00  1.0326567128836467e-01 4.1340386978255067e-02 0.0000000000000000e+00  1.0380285114889903e-01 4.2082017498987823e-02 0.0000000000000000e+00  1.0427741628175430e-01 4.2808623045909627e-02 0.0000000000000000e+00  1.0470164347890742e-01 4.3528037585308231e-02 0.0000000000000000e+00  1.0507460161905346e-01 4.4228093005121746e-02 0.0000000000000000e+00  1.0539843653648448e-01 4.4907159442793360e-02 0.0000000000000000e+00  1.0567329337863567e-01 4.5575300363043088e-02 0.0000000000000000e+00  1.0590817483188118e-01 4.6241641056480015e-02 0.0000000000000000e+00  1.0610025857680176e-01 4.6880702938509683e-02 0.0000000000000000e+00  1.0625090649575296e-01 4.7512024049336486e-02 0.0000000000000000e+00  1.0636508900926801e-01 4.8135455783655454e-02 0.0000000000000000e+00  1.0644339137166879e-01 4.8737687704377884e-02 0.0000000000000000e+00  1.0648990133465153e-01 4.9328282586486388e-02 0.0000000000000000e+00  1.0648657074707450e-01 5.0497613944074954e-02 0.0000000000000000e+00  1.0643617412878803e-01 5.1114193499541855e-02 0.0000000000000000e+00  1.0634633922411151e-01 5.1770383540936292e-02 0.0000000000000000e+00  1.0621393628506781e-01 5.2454266028473119e-02 0.0000000000000000e+00  1.0602675957109979e-01 5.3171266004823185e-02 0.0000000000000000e+00  1.0577409467268585e-01 5.3936096063146755e-02 0.0000000000000000e+00  1.0546490393870811e-01 5.4725059396655874e-02 0.0000000000000000e+00  1.0507920261691639e-01 5.5551445422550347e-02 0.0000000000000000e+00  1.0461279860615609e-01 5.6427037476855256e-02 0.0000000000000000e+00  1.0404416173792440e-01 5.7341658656171926e-02 0.0000000000000000e+00  1.0337169613409868e-01 5.8306611964625034e-02 0.0000000000000000e+00  1.0258760082651161e-01 5.9306073517381798e-02 0.0000000000000000e+00  1.0167912847853053e-01 6.0352122960529352e-02 0.0000000000000000e+00  1.0063466312827724e-01 6.1435168780702286e-02 0.0000000000000000e+00  9.9432711936253540e-02 6.2580186739393751e-02 0.0000000000000000e+00  9.8085375338050673e-02 6.3753796938910659e-02 0.0000000000000000e+00  9.6550985276760176e-02 6.4993628316122834e-02 0.0000000000000000e+00  9.4867246428663329e-02 6.6250305858573763e-02 0.0000000000000000e+00  9.2967445406264240e-02 6.7587162643433382e-02 0.0000000000000000e+00  9.0883240272321059e-02 6.8947998574974689e-02 0.0000000000000000e+00  8.8598293615544263e-02 7.0358244684264742e-02 0.0000000000000000e+00  8.6112338975871880e-02 7.1804226990846057e-02 0.0000000000000000e+00  8.3416887015601418e-02 7.3287925837915061e-02 0.0000000000000000e+00  8.0524941415565598e-02 7.4793436864081977e-02 0.0000000000000000e+00  7.7450002592713341e-02 7.6338765669350189e-02 0.0000000000000000e+00  7.4191087336096709e-02 7.7907879287442791e-02 0.0000000000000000e+00  7.0774158217099731e-02 7.9506059528746995e-02 0.0000000000000000e+00  6.7202640511987446e-02 8.1126783073715666e-02 0.0000000000000000e+00  6.3515523327985129e-02 8.2748543071818559e-02 0.0000000000000000e+00  5.9744539608344908e-02 8.4363738828928739e-02 0.0000000000000000e+00  5.5852364196587762e-02 8.6013262073836250e-02 0.0000000000000000e+00  5.1978616183816467e-02 8.7617048406312917e-02 0.0000000000000000e+00  4.8039677730801797e-02 8.9228323996659378e-02 0.0000000000000000e+00  4.4165987137031203e-02 9.0804389111656739e-02 0.0000000000000000e+00  4.0308507493716915e-02 9.2303011209914923e-02 0.0000000000000000e+00  3.6549425431895398e-02 9.3864807763642311e-02 0.0000000000000000e+00  3.2947114405843983e-02 9.5265954979128847e-02 0.0000000000000000e+00  2.9369994368771846e-02 9.6733500367593012e-02 0.0000000000000000e+00  2.6022040986329945e-02 9.8039601133645737e-02 0.0000000000000000e+00  2.2863275361034763e-02 9.9330095131756405e-02 0.0000000000000000e+00  1.9914361460838161e-02 1.0054493114075286e-01 0.0000000000000000e+00  1.7127768216222410e-02 1.0163728399051825e-01 0.0000000000000000e+00  1.4644118446501538e-02 1.0272085849592551e-01 0.0000000000000000e+00  1.2438037960825252e-02 1.0379078342840226e-01 0.0000000000000000e+00  8.2313130900001363e-03 1.0473154900214807e-01 0.0000000000000000e+00  6.2421643933441052e-03 1.0429758491222188e-01 0.0000000000000000e+00  4.5825476192445430e-03 1.0383072498874278e-01 0.0000000000000000e+00  3.2005147401089865e-03 1.0333607380159762e-01 0.0000000000000000e+00  2.0940032294771071e-03 1.0286062630182780e-01 0.0000000000000000e+00  1.2092338551575538e-03 1.0237253682541889e-01 0.0000000000000000e+00  5.1039561588668559e-04 1.0194131873267206e-01 0.0000000000000000e+00  1.5805978971003467e-05 1.0150027353197381e-01 0.0000000000000000e+00  -3.5243042276325142e-04 1.0108915829906297e-01 0.0000000000000000e+00  -5.5429060380755228e-04 1.0070250399753095e-01 0.0000000000000000e+00  -6.9747707202912242e-04 1.0033971691646487e-01 0.0000000000000000e+00  -8.7004076427081806e-04 1.0000000000000001e-01 0.0000000000000000e+00  -9.5180950503160613e-04 1.0000000000000002e-01 0.0000000000000000e+00  -1.0422957719972879e-03 1.0000000000000001e-01 0.0000000000000000e+00  -1.0605584315824805e-03 1.0000000000000001e-01 0.0000000000000000e+00  -1.0314930536744617e-03 1.0000000000000001e-01 0.0000000000000000e+00  -9.4627724681416799e-04 1.0000000000000001e-01 0.0000000000000000e+00  -7.9094595458921175e-04 1.0000000000000001e-01 0.0000000000000000e+00  -5.3863641987109470e-04 1.0000000000000001e-01 0.0000000000000000e+00  -1.8746331044790544e-04 1.0000000000000001e-01 0.0000000000000000e+00  2.6588082923547149e-04 9.9999999999999992e-02 0.0000000000000000e+00  8.6108228862859411e-04 1.0000000000000001e-01 0.0000000000000000e+00  1.7488501920123699e-03 9.8015420559404029e-02 0.0000000000000000e+00  2.1796154308654147e-03 9.6043642361588244e-02 0.0000000000000000e+00  2.9247696052015432e-03 9.4157756055747902e-02 0.0000000000000000e+00  3.8867012206848868e-03 9.2359705734986627e-02 0.0000000000000000e+00  5.0613696123291106e-03 9.0606320552818073e-02 0.0000000000000000e+00  6.4274131193876316e-03 8.8911735878973441e-02 0.0000000000000000e+00  7.9544362368407489e-03 8.7255055583788210e-02 0.0000000000000000e+00  9.6181761435134277e-03 8.5611241752188275e-02 0.0000000000000000e+00  1.1426293246774534e-02 8.4020084137651385e-02 0.0000000000000000e+00  1.3364270777597512e-02 8.2432590762431202e-02 0.0000000000000000e+00  1.5428629381361707e-02 8.0869681800379067e-02 0.0000000000000000e+00  1.7614969061875534e-02 7.9321274722060867e-02 0.0000000000000000e+00  1.9925621900816495e-02 7.7791108228076861e-02 0.0000000000000000e+00  2.2344956320302249e-02 7.6257793639804686e-02 0.0000000000000000e+00  2.4891328452556608e-02 7.4755858219710022e-02 0.0000000000000000e+00  2.7535322833218669e-02 7.3263315745876662e-02 0.0000000000000000e+00  3.0295334937227667e-02 7.1800242295634684e-02 0.0000000000000000e+00  3.3135218896755504e-02 7.0346739443342785e-02 0.0000000000000000e+00  3.6054815401363217e-02 6.8948031749318545e-02 0.0000000000000000e+00  3.9059679328842321e-02 6.7585506420936248e-02 0.0000000000000000e+00  4.2135644072814150e-02 6.6277034039729552e-02 0.0000000000000000e+00  4.5237146482996447e-02 6.4992501079693607e-02 0.0000000000000000e+00  4.8380615061307801e-02 6.3767060479158588e-02 0.0000000000000000e+00  5.1534966515571899e-02 6.2601954408305377e-02 0.0000000000000000e+00  5.4700795206227587e-02 6.1502677626113805e-02 0.0000000000000000e+00  5.7851582433079057e-02 6.0442505295916257e-02 0.0000000000000000e+00  6.0975609096222717e-02 5.9452341194498166e-02 0.0000000000000000e+00  6.4062036745695453e-02 5.8522659178191778e-02 0.0000000000000000e+00  6.7088416427755412e-02 5.7655526441985350e-02 0.0000000000000000e+00  7.0051573175585150e-02 5.6848366962705857e-02 0.0000000000000000e+00  7.2927564589399752e-02 5.6104627673321479e-02 0.0000000000000000e+00  7.5720511731649162e-02 5.5418769860342193e-02 0.0000000000000000e+00  7.8403981168203865e-02 5.4788416955075789e-02 0.0000000000000000e+00  8.0981061874578639e-02 5.4215800118914442e-02 0.0000000000000000e+00  8.3444267588861046e-02 5.3696547035978641e-02 0.0000000000000000e+00  8.5786261953771301e-02 5.3223289439912280e-02 0.0000000000000000e+00  8.8001915277476875e-02 5.2803666606954187e-02 0.0000000000000000e+00  9.0086478841662931e-02 5.2434552446058789e-02 0.0000000000000000e+00  9.2038118782414496e-02 5.2097742783960101e-02 0.0000000000000000e+00  9.3859009709958641e-02 5.1796413230090418e-02 0.0000000000000000e+00  9.5558765846906341e-02 5.1537354835488124e-02 0.0000000000000000e+00  9.7120695590443021e-02 5.1303584027027893e-02 0.0000000000000000e+00  9.8569021551934671e-02 5.1105446164411809e-02 0.0000000000000000e+00  9.9886427414047949e-02 5.0927287726934355e-02 0.0000000000000000e+00  1.0109038901958139e-01 5.0779179690756994e-02 0.0000000000000000e+00  1.0218129518468166e-01 5.0642346956868062e-02 0.0000000000000000e+00  1.0316755548864738e-01 5.0533766156615326e-02 0.0000000000000000e+00  1.0404879512379056e-01 5.0437426056816427e-02 0.0000000000000000e+00  1.0483701617260811e-01 5.0351809967306704e-02 0.0000000000000000e+00  1.0553175574185249e-01 5.0274277050755940e-02 0.0000000000000000e+00  1.0614339977822389e-01 5.0217129955934352e-02 0.0000000000000000e+00  1.0667695791149998e-01 5.0162760604089272e-02 0.0000000000000000e+00  1.0713198833485534e-01 5.0118850549121380e-02 0.0000000000000000e+00  1.0751852746056183e-01 5.0081814468398600e-02 0.0000000000000000e+00  1.0784917119926862e-01 5.0042570813455589e-02 0.0000000000000000e+00  1.0811574155454610e-01 5.0011192015000878e-02 0.0000000000000000e+00  1.0833465773116339e-01 4.9990387047446204e-02 0.0000000000000000e+00  1.0850309449844864e-01 4.9964983616419809e-02 0.0000000000000000e+00  1.0862685277589583e-01 4.9943316591739978e-02 0.0000000000000000e+00  1.0871142766811587e-01 4.9927956817852878e-02 0.0000000000000000e+00  1.0876013381465885e-01 4.9908314110406186e-02 0.0000000000000000e+00  1.0876314417096324e-01 4.9877144891894286e-02 0.0000000000000000e+00  1.0871502594225931e-01 4.9858904766148793e-02 0.0000000000000000e+00  1.0863295053355826e-01 4.9837796483557378e-02 0.0000000000000000e+00  1.0850957641731447e-01 4.9822069097607058e-02 0.0000000000000000e+00  1.0834449152623546e-01 4.9796371930599610e-02 0.0000000000000000e+00  1.0813183765154953e-01 4.9769645576614993e-02 0.0000000000000000e+00  1.0786136790177155e-01 4.9745096784075640e-02 0.0000000000000000e+00  1.0753647957124275e-01 4.9710174457482596e-02 0.0000000000000000e+00  1.0714753690160080e-01 4.9666106228374259e-02 0.0000000000000000e+00  1.0669178882785188e-01 4.9625697716971388e-02 0.0000000000000000e+00  1.0616463462675711e-01 4.9572223910064675e-02 0.0000000000000000e+00  1.0555064229083028e-01 4.9517976244637607e-02 0.0000000000000000e+00  1.0486363658557349e-01 4.9439987803795368e-02 0.0000000000000000e+00  1.0407631059589360e-01 4.9355926193808970e-02 0.0000000000000000e+00  1.0319884215430021e-01 4.9260412486432460e-02 0.0000000000000000e+00  1.0221024914494066e-01 4.9155471048597119e-02 0.0000000000000000e+00  1.0112026566531310e-01 4.9022490490444035e-02 0.0000000000000000e+00  9.9922517012139750e-02 4.8861666626840508e-02 0.0000000000000000e+00  9.8599068112770888e-02 4.8691172309474257e-02 0.0000000000000000e+00  9.7157981707904115e-02 4.8496102057743504e-02 0.0000000000000000e+00  9.5592416617177128e-02 4.8263617046344437e-02 0.0000000000000000e+00  9.3891287623158626e-02 4.8005943784119404e-02 0.0000000000000000e+00  9.2074102082337600e-02 4.7704753596101851e-02 0.0000000000000000e+00  9.0118314430001178e-02 4.7371806355270808e-02 0.0000000000000000e+00  8.8032458096330077e-02 4.7002276868630698e-02 0.0000000000000000e+00  8.5807862725799530e-02 4.6581139015931770e-02 0.0000000000000000e+00  8.3469908680086177e-02 4.6110757957522959e-02 0.0000000000000000e+00  8.0999952811763642e-02 4.5597875371157129e-02 0.0000000000000000e+00  7.8418910699413424e-02 4.5024132742238286e-02 0.0000000000000000e+00  7.5728865051231858e-02 4.4394512861947157e-02 0.0000000000000000e+00  7.2930749512187268e-02 4.3710839243297557e-02 0.0000000000000000e+00  7.0048222698514295e-02 4.2966405763163719e-02 0.0000000000000000e+00  6.7077716487714573e-02 4.2154446543500410e-02 0.0000000000000000e+00  6.4044468393932255e-02 4.1290357700248824e-02 0.0000000000000000e+00  6.0957840716095578e-02 4.0358459183165170e-02 0.0000000000000000e+00  5.7818791770841642e-02 3.9365849875931634e-02 0.0000000000000000e+00  5.4662726761488367e-02 3.8304161383498014e-02 0.0000000000000000e+00  5.1487148412365701e-02 3.7188211094896659e-02 0.0000000000000000e+00  4.8352598048353596e-02 3.6017812751442259e-02 0.0000000000000000e+00  4.5180603441887755e-02 3.4797706738832673e-02 0.0000000000000000e+00  4.2078328859461056e-02 3.3504356371978558e-02 0.0000000000000000e+00  3.9019693296522939e-02 3.2178049256087686e-02 0.0000000000000000e+00  3.6027072267071525e-02 3.0823603013393451e-02 0.0000000000000000e+00  3.3101202645380676e-02 2.9395313430085251e-02 0.0000000000000000e+00  3.0260494733109478e-02 2.7960181392691612e-02 0.0000000000000000e+00  2.7536193336983136e-02 2.6466019494099248e-02 0.0000000000000000e+00  2.4885871698818902e-02 2.4998288387172937e-02 0.0000000000000000e+00  2.2359695008169086e-02 2.3482259093831139e-02 0.0000000000000000e+00  1.9944686226254584e-02 2.1937708929344747e-02 0.0000000000000000e+00  1.7671643431196506e-02 2.0387406169862083e-02 0.0000000000000000e+00  1.5502772745754203e-02 1.8832800666100141e-02 0.0000000000000000e+00  1.3485736286579092e-02 1.7239257335164758e-02 0.0000000000000000e+00  1.1556930469534377e-02 1.5674719225637616e-02 0.0000000000000000e+00  9.7941272042901886e-03 1.4080933249387083e-02 0.0000000000000000e+00  8.1381085246876629e-03 1.2460611139095086e-02 0.0000000000000000e+00  6.6507046421802399e-03 1.0814615696236103e-02 0.0000000000000000e+00  5.3214300095520434e-03 9.1367969337810880e-03 0.0000000000000000e+00  4.1403195766744781e-03 7.4504335009435629e-03 0.0000000000000000e+00  3.1439371252487323e-03 5.7209719539564486e-03 0.0000000000000000e+00  2.2843963405762479e-03 3.9376125918715050e-03 0.0000000000000000e+00  1.4323618048029869e-03 2.1207145437348051e-0