<?xml version="1.0"?>
<VTKFile type="UnstructuredGrid"  version="0.1"  >
<UnstructuredGrid>
<Piece  NumberOfPoints="2064" NumberOfCells="3842">
<Points>
<DataArray  type="Float64"  NumberOfComponents="3"  format="ascii">0 0 0  0.4 0 0  0.4 0.4 0  0.4 2 0  0.4 2.4 0  0 2.4 0  0 1.2 0  0.09442719099991592 1.2 0  0.04999999999991419 0 0  0.09999999999976655 0 0  0.1499999999996174 0 0  0.1999999999994737 0 0  0.2499999999996012 0 0  0.2999999999997341 0 0  0.3499999999998725 0 0  0.4 0.04490054755780609 0  0.4 0.08728102288719632 0  0.4 0.127282861984852 0  0.4 0.1650395793634534 0  0.4 0.2006771614573222 0  0.4 0.2343145678202487 0  0.4 0.2660640514334936 0  0.4 0.2960315713318087 0  0.4 0.3243171534442337 0  0.4 0.3510151778607238 0  0.4 0.3762147593669765 0  0.3838325644673298 0.4184519041479398 0  0.3683953300346307 0.4368060584116434 0  0.3536615979029293 0.4550435590956501 0  0.3396051856135377 0.473147237722841 0  0.3262004928426353 0.4911015157475286 0  0.3134225038405827 0.5088923356151951 0  0.3012468350136632 0.5265070301161103 0  0.289649727202514 0.5439342653019726 0  0.2786080797806054 0.5611639229961951 0  0.2680994518128559 0.5781870282993612 0  0.2581020577925817 0.594995687384956 0  0.2485947966955289 0.6115829684453767 0  0.2395572159226798 0.6279428912420084 0  0.2309695402541045 0.6440703056409012 0  0.2228126456010115 0.6599608661499604 0  0.2150680649468926 0.6756109488118054 0  0.2077179652425745 0.6910176244172292 0  0.2007451581747424 0.7061785635724216 0  0.1941330685533778 0.7210920296031775 0  0.187865731362808 0.7357568136786556 0  0.1819277784059361 0.7501721918577611 0  0.1763044223842591 0.7643378897548474 0  0.1709814462523012 0.7782540354567948 0  0.1659451816940687 0.7919211416000106 0  0.1611825004958043 0.8053400559415214 0  0.1566807969567119 0.8185119361740301 0  0.1524279714485859 0.8314382242497815 0  0.1484124145310832 0.8441206213966692 0  0.1446229953612439 0.8565610509978405 0  0.1410490406726472 0.8687616532651306 0  0.1376803237536894 0.8807247502294573 0  0.1345070480820316 0.8924528295474728 0  0.1315198313379682 0.9039485300761398 0  0.1287096917422226 0.9152146212945773 0  0.1260680347252623 0.926253982770195 0  0.1235866354816217 0.9370696032148178 0  0.1212576294634056 0.9476645488952582 0  0.1190734945680743 0.9580419699947785 0  0.1170270419973136 0.9682050709600152 0  0.1151114007074783 0.9781571124265547 0  0.1133200055160031 0.9879013993486245 0  0.1116465857084123 0.9974412684028026 0  0.1100851540973415 1.00678007446057 0  0.1086299919107812 1.015921205370188 0  0.1072756432488249 1.024868042116264 0  0.1060168996208661 1.033623982063629 0  0.1048487921770971 1.042192417627859 0  0.1037665809790429 1.050576736266659 0  0.1027657469680525 1.058780303045589 0  0.1018419796222241 1.066806480626017 0  0.1009911707048814 1.074658604354542 0  0.100209404358178 1.082339989509986 0  0.09949294970732381 1.089853919786047 0  0.09883825188846673 1.097203654372538 0  0.09824192517424879 1.104392417551853 0  0.09770074530898887 1.111423399342931 0  0.09721164246300873 1.118299753112525 0  0.09677169442723854 1.125024593837347 0  0.09637812005447888 1.131600997033756 0  0.09602827298084238 1.138031997847958 0  0.09571963585538867 1.144320585137491 0  0.09544981410873254 1.150469709236281 0  0.09521653091090854 1.156482271096842 0  0.09501762139786152 1.162361132495572 0  0.09485102799585166 1.168109105493136 0  0.09471479534921778 1.17372895658593 0  0.09460706563777421 1.179223407979745 0  0.0945260742084173 1.184595133154879 0  0.09447014520952024 1.18984676120699 0  0.09443768756826221 1.194980871205597 0  0.09443806302859437 1.205108106364119 0  0.0944729919958105 1.210484287883107 0  0.09453577090937082 1.216142490300296 0  0.09463066380701091 1.222097360381834 0  0.0947624594889982 1.228364272753548 0  0.09493653111586542 1.234959359990207 0  0.09515890239686042 1.241899545953364 0  0.09543632088446197 1.249202574930454 0  0.09577633904503413 1.256887038135555 0  0.09618740432963668 1.264972406761361 0  0.0966789587196919 1.273479058714701 0  0.09726154875905446 1.282428302408976 0  0.09794694731159104 1.291842400140276 0  0.09874828856820561 1.301744593368398 0  0.09968021618774325 1.312159110985963 0  0.1007590472181439 1.323111179510956 0  0.1020029535614844 1.334627032832841 0  0.1034321610687219 1.346733904327509 0  0.1050691685317944 1.359460008750532 0  0.1069389890698906 1.372834517030006 0  0.1090694154101453 1.386887516567777 0  0.1114913103057413 1.401649949581689 0  0.1142389217184392 1.41715351493907 0  0.1173502356392664 1.433430591737466 0  0.1208673508568801 1.450514074661389 0  0.1248368950934375 1.468437217466946 0  0.1293104684030106 1.487233394167611 0  0.1343451326727159 1.506935853147407 0  0.1400039326793197 1.527577381161243 0  0.1463564603139997 1.549189915865717 0  0.1534794513310238 1.571804055040348 0  0.1614574289723265 1.59544850275497 0  0.1703833808249424 1.620149393439201 0  0.1803594611147896 1.645929471137086 0  0.191497735209273 1.672807165289779 0  0.2039209237677404 1.700795448389207 0  0.2177631713050063 1.729900546040858 0  0.2331708044748657 1.760120417463775 0  0.2503030499535754 1.791442962663554 0  0.2693327082756052 1.823843972070083 0  0.2904467283334415 1.857284740872639 0  0.313846664572799 1.891709354564414 0  0.3397489262043362 1.927041546768065 0  0.3683847768932553 1.963181136608806 0  0.4 2.044900547557741 0  0.4 2.087281022887292 0  0.4 2.127282861984825 0  0.4 2.165039579363555 0  0.4 2.200677161457211 0  0.4 2.234314567819979 0  0.4 2.266064051433231 0  0.4 2.29603157133185 0  0.4 2.324317153444571 0  0.4 2.351015177861111 0  0.4 2.376214759367253 0  0.3762147593670869 2.4 0  0.3510151778609575 2.4 0  0.3243171534446052 2.4 0  0.296031571332334 2.4 0  0.2660640514341884 2.4 0  0.2343145678211326 2.4 0  0.200677161458414 2.4 0  0.165039579364376 2.4 0  0.1272828619855727 2.4 0  0.08728102288768802 2.4 0  0.04490054755804584 2.4 0  0 2.351390275785884 0  0 2.304552731578128 0  0 2.259422753650416 0  0 2.215938095776203 0  0 2.174038769221176 0  0 2.133666973505663 0  0 2.094767030761372 0  0 2.057285274882487 0  0 2.021169996669198 0  0 1.98637139041763 0  0 1.952841448848309 0  0 1.920533905270079 0  0 1.889404216687487 0  0 1.859409431581987 0  0 1.830508174253126 0  0 1.802660578364919 0  0 1.775828229457246 0  0 1.749974120892053 0  0 1.725062579668715 0  0 1.701059245975984 0  0 1.677931008439425 0  0 1.655645964869692 0  0 1.634173369332893 0  0 1.613483613383766 0  0 1.593548147670557 0  0 1.574339474861461 0  0 1.555831095205801 0  0 1.537997486363343 0  0 1.520814036475161 0  0 1.504257050792596 0  0 1.488303689738582 0  0 1.47293194468338 0  0 1.458120611126952 0  0 1.443849259716804 0  0 1.430098202826807 0  0 1.416848471990003 0  0 1.404081790973001 0  0 1.391780548456538 0  0 1.379927775838647 0  0 1.36850712315392 0  0 1.357502837034801 0  0 1.346899736933002 0  0 1.336683196700207 0  0 1.326839124824946 0  0 1.317353941220879 0  0 1.308214562093801 0  0 1.299408378803474 0  0 1.290923246392895 0  0 1.282747456144235 0  0 1.274869735093633 0  0 1.267279214098316 0  0 1.259965423665274 0  0 1.252918273094548 0  0 1.246128044148505 0  0 1.239585367106648 0  0 1.23328121948346 0  0 1.227206903233693 0  0 1.221354040630691 0  0 1.215714557462727 0  0 1.210280675039678 0  0 1.205044896789031 0  0 1.194955103210978 0  0 1.189719324960339 0  0 1.1842854425373 0  0 1.178645959369345 0  0 1.172793096766355 0  0 1.166718780516599 0  0 1.160414632893424 0  0 1.15387195585158 0  0 1.147081726905552 0  0 1.14003457633484 0  0 1.132720785901815 0  0 1.125130264906515 0  0 1.117252543855931 0  0 1.109076753607291 0  0 1.100591621196733 0  0 1.091785437906426 0  0 1.082646058779372 0  0 1.07316087517533 0  0 1.063316803300096 0  0 1.053100263067329 0  0 1.042497162965573 0  0 1.031492876846507 0  0 1.020072224161836 0  0 1.008219451544004 0  0 0.9959182090276039 0  0 0.9831515280106697 0  0 0.969901797173938 0  0 0.9561507402840164 0  0 0.9418793888739494 0  0 0.9270680553176084 0  0 0.9116963102624975 0  0 0.8957429492085807 0  0 0.8791859635261186 0  0 0.8620025136380454 0  0 0.8441689047957012 0  0 0.8256605251401634 0  0 0.8064518523311963 0  0 0.7865163866181252 0  0 0.7658266306691419 0  0 0.7443540351324957 0  0 0.7220689915629243 0  0 0.6989407540265372 0  0 0.6749374203339855 0  0 0.6500258791108374 0  0 0.6241717705458441 0  0 0.5973394216383467 0  0 0.5694918257499931 0  0 0.5405905684209703 0  0 0.5105957833153173 0  0 0.479466094732611 0  0 0.4471585511542315 0  0 0.4136286095847471 0  0 0.3788300033330131 0  0 0.3427147251195944 0  0 0.305232969240564 0  0 0.2663330264961172 0  0 0.225961230780293 0  0 0.1840619042249165 0  0 0.1405772463503563 0  0 0.09544726842240769 0  0 0.04860972421439458 0  0.04813671057256446 1.197473279821492 0  0.04895543136439754 1.151270788221793 0  0.04738437551928104 1.245081661106426 0  0.2256341401927007 0.335035210600554 0  0.0512759040765693 1.103565270882211 0  0.1570277503437201 0.4710961631110478 0  0.04891680688198799 1.294160758757891 0  0.05568190394618851 1.057427469737321 0  0.05765554841188782 1.003616718285677 0  0.1206184164719817 0.6010910013922988 0  0.2174958646397733 2.217495864639892 0  0.06616240375728431 1.175917411653735 0  0.09608236746672907 0.7063802628109249 0  0.02794287230014219 1.219415480129978 0  0.06431259901636358 1.220489754068911 0  0.02794535307324082 1.174496345043953 0  0.06296426494091534 0.9414057385563683 0  0.08050882020181049 0.7988485989880517 0  0.0719103235923903 0.86993553852932 0  0.1823275170984414 2.037281568815077 0  0.04971518892196945 1.344501211918876 0  0.2490207822396599 0.1848651832981602 0  0.052494558421043 1.396392612075255 0  0.1344185702276811 1.870543477222118 0  0.07221302203322316 1.197443967850841 0  0.06629456243276534 1.127713702579542 0  0.03033713389389925 1.127495065716931 0  0.02186182423217333 1.197477551605483 0  0.06191152475830487 1.458801491557402 0  0.1109984100569154 1.762901175174654 0 
[...]
<CellData  Scalars="f_185"> 
<DataArray  type="Float64"  Name="f_185"  format="ascii">3.2584671778591118e-01   3.2727001167391556e-01   2.2499712615003700e-01   7.3464732454157078e-01   7.7474769106805286e-01   7.3303578538017589e-01   7.3149946997239557e-01   7.7932295671451901e-01   3.6554443965813693e-01   6.8988443516993103e-01   6.8446078194956728e-01   2.7940134122572469e-01   7.4054052360032552e-01   7.3057850281127845e-01   2.1703370080160059e-01   7.7144410886345227e-01   7.6694554473006982e-01   7.2075696423756319e-01   7.2295903359854585e-01   7.2517636906629557e-01   7.3787341617063196e-01   4.0534038765015634e-01   5.0630246553681113e-01   1.5630840022263270e-01   7.8182562423218604e-01   7.5786193033041382e-01   7.3972372054422719e-01   7.4477879086766685e-01   2.0930709498808533e-01   2.1763759853295775e-01   3.6958465758497949e-01   7.5726253363296092e-01   1.6846582244406774e-01   1.7695943922698526e-01   3.3168264455638169e-01   4.4683550984752729e-01   1.3544878010278211e-01   7.0823771683888703e-01   2.5962261825118904e-01   6.9696488813106328e-01   7.9804325747009086e-01   6.7326241072793247e-01   3.6761177491186642e-01   7.7060239238429817e-01   2.5202244164858378e-01   3.9967456741037488e-01   2.8516216043896703e-01   7.6398266170649010e-01   1.7734605098763515e-01   7.8343619399031372e-01   7.5783205364600603e-01   2.3404091680680719e-01   7.5651693810027199e-01   7.8435739534975646e-01   3.9989383690692948e-01   7.4438501375759158e-01   1.9447877912404435e-01   3.8992614683042143e-01   7.8469045126286030e-01   1.9543448895375173e-01   7.2386887732660321e-01   1.5214287970507853e-01   3.2495179734687435e-01   7.5564443326101194e-01   2.4946308207021864e-01   7.4055784728700957e-01   7.7341339517225327e-01   6.8619252678758302e-01   7.0922863573154282e-01   6.0356564880996899e-01   6.0275035530916921e-01   5.5725902729260757e-01   7.4455606502397553e-01   3.5462228689911113e-01   7.5465874651255604e-01   7.3038718770410116e-01   7.1775369778133502e-01   7.4866683060463768e-01   3.2400962419429380e-01   2.2062851577640658e-01   7.3767543132810043e-01   7.3193284441738216e-01   4.0515163651960623e-01   7.0995835806744934e-01   7.5484515097286153e-01   6.9908948918026392e-01   1.7766166850565127e-01   3.8062109986176468e-01   9.0868338181390340e-02   6.8090606490914429e-01   7.6106380564208986e-01   2.6796405010419222e-01   7.7869380043108161e-01   2.3993664177987006e-01   5.0184026668180870e-01   5.9241235685414517e-01   5.0834819993068658e-01   4.1221315585504881e-01   7.5055448156592963e-01   2.5365478401650893e-01   6.8290221618776037e-01   1.3128586121140365e-01   1.8297557282625690e-01   2.6444151434075847e-01   1.9170139426193702e-01   2.5473174824546685e-01   4.3689597057786184e-01   7.4248256509276056e-01   7.9453125915272249e-01   7.9278970035554197e-01   3.4527076475625246e-01   7.0313129774574135e-01   3.2041503670265725e-01   1.3704370640406732e-01   7.0616831198382346e-01   6.8506279546483340e-01   7.0895591259746349e-01   7.3916483781753428e-01   5.4480309499873480e-01   2.0967346543508461e-01   4.3262132581715074e-01   2.0948556234747270e-01   7.4253941381406130e-01   6.8261121848267448e-01   2.9671368063519588e-01   7.7139051432823935e-01   4.5526228279986269e-01   7.3859213264435908e-01   1.6745962791862160e-01   7.5411536251562272e-01   7.3026590541280234e-01   7.4751583432426993e-01   2.2330453693382044e-01   7.1270321420503480e-01   6.5411426300577369e-01   7.0628568168182471e-01   2.8817637982002758e-01   7.5135417205748145e-01   7.6574380200562098e-01   1.7507328594272217e-01   1.1672128263277089e-01   3.7523641954561854e-01   2.2887688986612939e-01   7.8368678955499527e-01   6.5282297034692871e-01   7.1501587154930746e-01   7.9311961648743190e-01   7.6237482344752050e-01   1.6007257400851896e-01   6.9177984149815841e-01   7.6510669925681207e-01   7.3656032864820409e-01   3.8533799965775128e-01   6.4365019569355963e-01   7.6891933883941999e-01   3.3868234771290878e-01   3.3394481289961514e-01   7.5901017257801695e-01   7.5259993624531463e-01   5.8846482260880539e-01   7.8712892279061031e-01   7.7134881425674451e-01   5.4745734346517427e-01   6.9824398751038286e-01   6.0237738344215641e-01   3.6152842223719178e-01   6.9307091075190563e-01   6.9129560296170178e-01   6.4457707882261983e-01   6.5402875932478377e-01   3.5424127989935228e-01   7.2674303362804860e-01   1.8265325092031695e-01   3.2460559046250714e-01   2.6205277220654977e-01   7.6144342381347718e-01   1.9388441559465697e-01   6.4510513248533852e-01   7.6101035571106057e-01   1.9925435008962594e-01   7.7050456724581506e-01   7.4539039341475166e-01   6.8068564842189683e-01   2.5438593874031401e-01   1.5200361147335589e-01   1.5382128824202532e-01   7.3516739889572691e-01   7.3794830894474073e-01   1.5190872196031002e-01   5.4836908241868554e-01   6.4581225980999091e-01   1.3549424726926670e-01   7.1705264697647197e-01   7.8707459267854329e-01   3.5427219114360081e-01   7.8830045553573425e-01   1.1672942383613395e-01   6.5283204202860246e-01   2.0506142201338728e-01   6.9126951320850671e-01   7.8892708698448155e-01   2.0843532281644336e-01   2.5954626062499442e-01   4.4227349248092640e-01   6.5362614510107397e-01   3.3192825260881931e-01   5.7916597964033245e-01   2.4430877141200799e-01   2.1748368372070612e-01   7.6926418695437615e-01   4.7851193356989880e-01   4.8717451571485326e-01   7.3990897611577533e-01   7.5162256709128472e-01   1.5776302910487858e-01   7.6162691954035122e-01   2.8891836983115476e-01   2.5727950828189361e-01   4.6513354553807923e-01   7.5153537895068556e-01   6.5744600961817201e-01   4.4814622444159280e-01   6.8096017462397396e-01   7.6275171392938113e-01   7.8128009817154254e-01   7.7464787480542885e-01   1.5830633338928612e-01   2.2427588748820423e-01   3.2841646105697153e-01   7.3917707575294411e-01   2.7979581230845368e-01   1.4409819977223853e-01   7.4864348075380560e-01   5.9038290250011038e-01   6.8162967049183831e-01   5.7192185009776775e-01   1.6117776255773988e-01   2.8797308743090216e-01   3.8488548709427972e-01   1.6366798764238638e-01   7.6949674861227402e-01   7.3202156014094810e-01   5.9100499636525450e-01   1.3810024307243160e-01   7.7220288975382212e-01   2.7866125591037688e-01   7.6935926150249612e-01   3.4122840525339060e-01   1.7020517346791669e-01   6.5983005516995452e-01   7.4876891502927134e-01   2.9189336652843956e-01   7.6977518216818874e-01   3.5575570527903627e-01   3.4380200605132044e-01   7.4091553866172810e-01   1.7773631577389162e-01   7.1049095339996315e-01   6.4653626904703787e-01   7.4851730756164636e-01   1.5590676651896021e-01   2.3092871732305181e-01   6.9680651847093578e-01   2.3392602648643562e-01   3.2885512463751909e-01   3.2803095520678954e-01   7.7975958585287564e-01   7.1716930956751090e-01   2.4820917127897660e-01   1.5477822185888349e-01   4.4284961003587914e-01   7.0193623149847362e-01   3.1760391512116354e-01   1.5544899139978530e-01   2.8306770093911859e-01   7.7891805119233914e-01   2.8570199121956569e-01   1.3373184485687906e-01   6.6066180496257387e-01   7.8003912477355120e-01   7.3167559803552118e-01   7.0790374354682506e-01   3.7229586741605908e-01   5.8512752345988595e-01   7.4789399082647834e-01   6.7034606897903204e-01   2.8360531714112636e-01   2.0555610444049940e-01   6.4440951194750551e-01   6.6399187756688094e-01   1.6496355388467490e-01   7.5216572929411651e-01   7.1074277793125340e-01   1.3905213278464451e-01   8.1019455667986917e-01   7.3574506818349861e-01   7.3970308195742029e-01   7.8408517140886858e-01   6.7447075263686218e-01   6.2242315371753265e-01   1.7562808539473976e-01   7.4511442623984880e-01   7.5250693832616922e-01   7.6754093956424330e-01   4.5965956578341777e-01   1.6689318905410708e-01   7.5398794021643534e-01   7.8827515322191144e-01   7.3520614501623560e-01   2.3502693534780947e-01   7.7563223078533461e-01   4.3854127251277208e-01   7.4109180180512824e-01   3.6747477821032015e-01   7.7024493869161403e-01   5.2144909643091875e-01   4.7243984498560054e-01   1.7596985369751866e-01   7.0218032157509103e-01   5.2929343947682528e-01   7.5009926437477870e-01   6.3175312771417513e-01   7.7502970147384642e-01   7.6192071144754592e-01   7.3313018236699745e-01   6.4291306536138582e-01   7.3185255752782308e-01   7.6040993675845048e-01   3.2692111826344794e-01   2.7733741971973258e-01   7.2597127093389913e-01   6.8589706127165051e-01   7.0123192470122997e-01   1.3462961731301890e-01   3.5435463203475798e-01   1.3269308486375359e-01   6.9066244423566492e-01   3.1226756380708048e-01   8.0183790933617505e-01   7.3704687841581362e-01   1.3580699271236776e-01   5.7003669568056992e-01   7.9736853299679467e-01   2.4125061026923647e-01   7.4956639899238353e-01   6.0356538223619438e-01   6.1195300738499192e-01   6.6960591216525123e-01   2.6996311729448091e-01   5.8938700115175102e-01   1.9222871430097097e-01   7.3426913915988934e-01   2.4073186903269342e-01   2.7208259137183666e-01   1.4574162173295607e-01   8.0743770819774063e-01   6.9405646176436375e-01   6.5351228181155785e-01   4.7232867944755369e-01   7.7399603817960805e-01   7.3458113108591505e-01   6.6023741168004868e-01   6.1371047728523309e-01   2.2852291303953223e-01   5.9444084336329284e-01   7.0548150653179909e-01   4.2918600334956686e-01   7.8411721765305842e-01   7.7132857631557639e-01   1.0595201238648433e-01   1.7155998477096870e-01   1.2173901792095303e-01   3.2690357260737701e-01   6.0040627663297186e-01   4.4897386849235504e-01   7.0184826762125718e-01   1.8264380787542239e-01   7.2957073052453913e-01   7.3152629555964488e-01   7.6612609238146678e-01   2.5892289595878193e-01   1.4899435107526629e-01   3.5512945182129207e-01   6.7324544959922628e-01   1.5683644883093650e-01   7.4559853993616254e-01   7.0542503781801513e-01   7.6114563243999056e-01   3.7722958990610927e-01   7.3027298760357207e-01   5.2714595420492638e-01   2.3586464528417955e-01   2.1600023143463884e-01   3.4134142937615181e-01   7.2863501973168321e-01   7.2474896359236707e-01   2.7420400748916346e-01   5.9190348357072375e-01   2.6725531196457192e-01   6.8946003645801379e-01   1.0136837671807643e-01   3.0800431569913506e-01   8.0545380057744265e-01   7.0170714259241129e-01   7.4241193696771290e-01   3.2523301879258504e-01   2.1371228144595714e-01   6.9797888447235834e-01   7.4867719459012627e-01   5.3098902854091279e-01   7.3979141585563346e-01   1.2906966720641408e-01   7.3422083073051592e-01   5.3719086953202477e-01   2.9120576646002150e-01   7.8069262597767097e-01   2.8909777623225458e-01   6.7631413733953649e-01   8.1286431334719578e-01   2.9313403087940132e-01   8.1196867747164433e-02   5.1222215115736236e-01   7.3618502801392283e-01   7.3865977950626227e-01   4.8256797679273028e-01   7.4633004883174303e-01   3.4059713660282120e-01   3.6998453450725394e-01   2.7642676051312765e-01   6.5174120684538084e-01   7.4556569901520386e-01   7.3890600042848631e-01   4.4675433968794903e-01   7.5079616214008504e-01   6.8721704761417701e-01   6.8183593543616328e-01   1.4696511802619955e-01   6.9368574211557099e-01   7.3730457755929724e-01   8.0990012237493780e-01   7.8278449854004484e-01   1.9081115023025280e-01   7.7996512273826635e-01   5.7349127652780285e-01   5.8385314171333724e-01   6.1171210894641426e-01   7.8097100877841719e-01   7.4463018168382544e-01   7.3455844485141208e-01   7.7654098438341557e-01   1.1984935809391935e-01   3.6168159904154540e-01   6.4941633875533711e-01   6.4317401581003153e-01   1.8975135933321605e-01   7.3324088084978845e-01   7.5017123619048709e-01   8.0258467540039025e-01   7.5436146688901651e-01   6.9533375588256874e-01   1.4585772829982310e-01   7.2420153665248244e-01   7.3551190070011130e-01   5.3139888748654218e-01   2.8075248526768931e-01   2.8179353083099229e-01   5.9580622692896701e-01   1.3565680973704744e-01   7.4364057428059349e-01   7.6649243320485261e-01   4.3305299478316134e-01   6.4241919507265588e-01   2.1291276944275536e-01   2.1780250963358247e-01   2.8518369799117715e-01   7.1158436877969444e-01   5.2783040055779029e-01   7.0186600907954111e-01   2.6344304041802841e-01   7.5976256037283507e-01   7.6149028411339392e-01   2.6878002327488010e-01   8.1069373847401194e-01   1.2804121937569102e-01   2.3886061274779763e-01   7.0204478736957454e-01   2.5800756164819899e-01   5.2975744192605745e-01   4.6796363228199839e-01   4.6163036568410437e-01   7.3514725206400722e-01   7.3468650607031016e-01   3.0939138449531495e-01   1.7286958526623586e-01   7.4727924690950698e-01   7.8361709897469334e-01   1.7745255715005911e-01   6.9646029129509335e-01   7.0701647373618970e-01   7.3808501756228750e-01   6.0513622190502137e-01   3.8925829521624683e-01   2.6913712908310600e-01   6.8447863652709728e-01   7.4128952873662912e-01   3.0035635435987046e-01   4.5696814299351035e-01   7.3197331075547201e-01   7.2440829482198243e-01   7.5865204354596494e-01   5.3166417309558700e-01   3.6400942244547713e-01   2.1440730331724886e-01   1.7038241954957478e-01   7.2684821943476829e-01   2.5837380989706554e-01   2.7730625763575872e-01   7.4598727092947037e-01   2.5101629057471847e-01   6.7791089737741483e-01   6.8866932650296464e-01   6.3755520890042805e-01   7.3796049779069639e-01   7.5518058997026716e-01   7.4116320082050524e-01   7.1392368329788058e-01   6.9006800203512819e-01   1.7781036642818704e-01   7.6704701511564588e-01   7.4677520390206098e-01   3.6088079488193076e-01   6.9559216712163607e-01   4.0573138997456959e-01   1.3414256386143372e-01   7.1539725220711825e-01   7.3050637457750367e-01   7.4361190514530973e-01   7.0387385870212715e-01   3.0477129780008966e-01   7.6132087754147859e-01   2.3418445444974964e-01   7.6801755635605318e-01   3.5618610654514155e-01   5.4700066629155490e-02   1.7271225682735755e-01   7.3385382076641947e-01   4.3161425683295990e-01   6.3029398283661453e-01   2.3953962482467428e-01   2.3437248453416182e-01   7.0584501570956704e-01   4.3900587988901302e-01   2.2660133224673526e-01   1.6947744071657173e-01   1.4071749201656081e-01   7.4828121682660254e-01   7.4145797793562862e-01   2.9815049743582328e-01   2.7105083800085911e-01   4.0748427958259892e-01   7.3642883667065484e-01   4.1785905797813871e-01   2.4762307820743790e-01   7.8637226214616818e-01   6.6831386860641573e-01   2.9212382079083743e-01   2.1168548625312134e-01   7.9850661312267190e-01   5.8957389592233311e-01   3.6407377594142415e-01   3.4869756773342270e-01   6.9017599589448408e-01   1.8503388197768245e-01   4.1638193936076223e-01   7.1796451699051267e-01   7.7136246192562485e-01   4.0164381086877982e-01   4.9689878281762406e-01   2.0712487349046604e-01   1.4815676756514354e-01   7.3496101602837449e-01   3.2434496320203871e-01   7.4928857763373269e-01   7.3327780104552587e-01   8.4806540191485966e-02   7.1091555128449357e-01   1.4931196456639223e-01   7.3767414863143144e-01   6.7398923418339218e-01   6.9640871573337371e-01   3.8705925067910169e-01   6.4654963122293341e-01   1.2337826550506284e-01   6.5092853493580538e-01   1.3187291774243184e-01   6.5301503445270959e-01   2.1308510386332249e-01   1.8480761750557581e-01   5.0211510049292807e-01   7.4349573258462853e-01   3.2051953418208889e-01   2.7433829628707890e-01   7.5024241101234401e-01   7.6591324827648977e-01   7.0442060966444842e-01   7.4729781622437896e-01   2.7645037368860825e-01   6.4681602454453058e-01   5.3291597006139846e-01   6.6990318032246399e-01   7.1518809228712177e-01   2.5899707239592573e-01   7.0743438791209334e-01   2.5804287435711804e-01   6.5907777152104607e-01   7.1597938746574397e-01   6.9130710990043498e-01   2.6183907442481441e-01   1.6045886885008037e-01   6.6885154707322081e-01   3.4178767803043553e-01   3.8742263854283909e-01   1.8096598862179428e-01   5.1608247727594903e-01   7.0727652283706133e-01   6.9845240628916549e-01   2.1242602592136234e-01   7.3995192764601481e-01   6.7242854738976954e-01   2.8016320520930588e-01   1.0938741717372417e-01   1.6915172708184831e-01   1.9491064064182867e-01   2.2638062407030407e-01   8.1226499591668588e-01   2.9035207444809963e-01   2.5865634297530332e-01   7.8855182625775011e-01   7.2772865736588654e-01   7.4842351620047798e-01   7.8207338297920104e-01   3.6861846962867462e-01   7.2570439419819299e-01   2.5746411105771383e-01   7.5695963171876379e-01   8.1738281196584361e-01   7.1916064197336982e-01   1.0780783164495415e-01   7.2350445625999105e-01   7.7342686207578415e-01   2.3250696856828404e-01   7.8126021543825641e-01   7.8054368896745063e-01   2.6209434219103944e-01   2.7035125305557195e-01   6.9668538920900125e-01   2.3107526634081998e-01   6.1720200500330169e-01   5.7272012470437761e-01   3.1473601783052596e-01   8.0449140546430908e-01   2.8878803596820574e-01   5.6969665338719089e-01   3.2895453508718470e-01   6.2511801483674179e-01   7.1199846099956365e-01   2.9608320831113266e-01   1.6182797113687525e-01   1.9674609303748158e-01   1.9906417085396785e-01   7.4701751504639546e-01   7.4897275839319088e-01   6.8732930942152182e-01   6.3014982169200362e-01   6.3686926195498206e-01   5.8873558907546508e-01   6.8170102744183381e-01   7.4856168399320211e-01   5.5687691206341305e-01   1.7555007719179730e-01   7.2975718119696009e-01   2.3417536783412179e-01   6.0622552498869808e-01   5.2062388738197674e-01   3.1865887730221210e-01   4.8243367714919050e-01   1.8338102603227011e-01   1.6947744071657431e-01   1.9555954024040756e-01   6.6197710443639279e-01   2.7059628862183405e-01   1.8169816739526023e-01   7.3653869716700093e-01   4.8697307528638195e-01   5.3061584209770740e-01   7.3602288122084658e-01   8.0194612891297956e-01   4.8140111156725629e-01   7.6380302644899334e-01   7.3906482127487616e-01   2.7331439393033086e-01   7.8834645535504844e-01   1.0217617957293101e-01   7.4253443573033251e-01   5.8455509310079135e-01   7.3476953772863429e-01   1.6374353169257544e-01   5.2704108850284104e-01   2.8744782299707727e-01   3.5250928721884955e-01   7.3415006498749558e-01   4.4516622267956046e-01   6.7869893571945084e-01   7.9583315738585902e-01   7.3929880677168958e-01   5.4674348475727308e-01   3.4474344115917593e-01   3.2132994208356780e-01   6.0126710107359804e-01   6.3678422992051176e-01   7.0485646453807571e-01   7.3902018795308444e-01   7.5131991411371257e-01   2.2471364048123732e-01   7.3532814095643917e-01   3.6172420210672213e-01   6.7450300812250130e-01   5.7651059582341402e-01   2.7105645319090260e-01   1.1178963526873566e-01   2.8438801773033595e-01   3.3374550118098767e-01   4.8062311094906973e-01   2.4132059289751795e-01   7.6723333534310190e-01   7.4415566629963437e-01   6.7447529185696264e-01   6.5150001285586268e-01   8.1903462777876768e-01   3.6391105968753590e-01   5.9430175064857382e-01   4.7621646917686838e-01   2.8877260734163968e-01   2.8970270093672584e-01   6.9184741039974962e-01   7.7538271292740735e-01   3.1196877621780739e-01   7.7829051500112612e-01   7.3718015650136526e-01   4.9282760954942009e-02   3.3421389531865903e-01   7.6349030585073341e-01   6.9314516996613951e-01   7.2030394007021548e-01   3.1997457256133788e-01   1.2097452402725822e-01   3.8305390105090031e-01   6.7445206601288243e-01   2.2812175683244004e-01   7.6853474060276361e-01   6.5535953422639903e-01   2.1397844647728159e-01   8.0507270862277724e-01   6.1883559772827657e-01   6.5125605960352018e-01   6.4446042695271555e-01   7.1871485362019993e-01   7.3500054925355141e-01   2.0508939381734925e-01   7.2349758102877748e-01   3.5796172001436566e-01   7.3396601475867129e-01   7.2944501714017851e-01   1.6075687476731473e-01   1.4568712365303194e-01   5.1108993456178131e-01   2.0216491341788392e-01   3.2659152667784530e-01   5.8376321480336668e-01   7.5064114359542944e-01   1.6635312433204250e-01   2.5574158322924717e-01   7.2110435031594389e-01   7.3477683021495610e-01   4.1809920080680879e-01   1.7256993294708622e-01   1.7867971405860938e-01   2.5290027277743182e-01   6.1910018069856410e-01   6.6750158546322980e-01   7.4157625009497952e-01   7.7042835971419776e-01   2.1544738624194495e-01   7.6915881197221636e-01   3.1852161167853921e-01   7.4037278065810641e-01   1.767317426928