<?xml version="1.0"?>
<VTKFile type="UnstructuredGrid"  version="0.1"  >
<UnstructuredGrid>
<Piece  NumberOfPoints="2064" NumberOfCells="3842">
<Points>
<DataArray  type="Float64"  NumberOfComponents="3"  format="ascii">0 0 0  0.4 0 0  0.4 0.4 0  0.4 2 0  0.4 2.4 0  0 2.4 0  0 1.2 0  0.09442719099991592 1.2 0  0.04999999999991419 0 0  0.09999999999976655 0 0  0.1499999999996174 0 0  0.1999999999994737 0 0  0.2499999999996012 0 0  0.2999999999997341 0 0  0.3499999999998725 0 0  0.4 0.04490054755780609 0  0.4 0.08728102288719632 0  0.4 0.127282861984852 0  0.4 0.1650395793634534 0  0.4 0.2006771614573222 0  0.4 0.2343145678202487 0  0.4 0.2660640514334936 0  0.4 0.2960315713318087 0  0.4 0.3243171534442337 0  0.4 0.3510151778607238 0  0.4 0.3762147593669765 0  0.3838325644673298 0.4184519041479398 0  0.3683953300346307 0.4368060584116434 0  0.3536615979029293 0.4550435590956501 0  0.3396051856135377 0.473147237722841 0  0.3262004928426353 0.4911015157475286 0  0.3134225038405827 0.5088923356151951 0  0.3012468350136632 0.5265070301161103 0  0.289649727202514 0.5439342653019726 0  0.2786080797806054 0.5611639229961951 0  0.2680994518128559 0.5781870282993612 0  0.2581020577925817 0.594995687384956 0  0.2485947966955289 0.6115829684453767 0  0.2395572159226798 0.6279428912420084 0  0.2309695402541045 0.6440703056409012 0  0.2228126456010115 0.6599608661499604 0  0.2150680649468926 0.6756109488118054 0  0.2077179652425745 0.6910176244172292 0  0.2007451581747424 0.7061785635724216 0  0.1941330685533778 0.7210920296031775 0  0.187865731362808 0.7357568136786556 0  0.1819277784059361 0.7501721918577611 0  0.1763044223842591 0.7643378897548474 0  0.1709814462523012 0.7782540354567948 0  0.1659451816940687 0.7919211416000106 0  0.1611825004958043 0.8053400559415214 0  0.1566807969567119 0.8185119361740301 0  0.1524279714485859 0.8314382242497815 0  0.1484124145310832 0.8441206213966692 0  0.1446229953612439 0.8565610509978405 0  0.1410490406726472 0.8687616532651306 0  0.1376803237536894 0.8807247502294573 0  0.1345070480820316 0.8924528295474728 0  0.1315198313379682 0.9039485300761398 0  0.1287096917422226 0.9152146212945773 0  0.1260680347252623 0.926253982770195 0  0.1235866354816217 0.9370696032148178 0  0.1212576294634056 0.9476645488952582 0  0.1190734945680743 0.9580419699947785 0  0.1170270419973136 0.9682050709600152 0  0.1151114007074783 0.9781571124265547 0  0.1133200055160031 0.9879013993486245 0  0.1116465857084123 0.9974412684028026 0  0.1100851540973415 1.00678007446057 0  0.1086299919107812 1.015921205370188 0  0.1072756432488249 1.024868042116264 0  0.1060168996208661 1.033623982063629 0  0.1048487921770971 1.042192417627859 0  0.1037665809790429 1.050576736266659 0  0.1027657469680525 1.058780303045589 0  0.1018419796222241 1.066806480626017 0  0.1009911707048814 1.074658604354542 0  0.100209404358178 1.082339989509986 0  0.09949294970732381 1.089853919786047 0  0.09883825188846673 1.097203654372538 0  0.09824192517424879 1.104392417551853 0  0.09770074530898887 1.111423399342931 0  0.09721164246300873 1.118299753112525 0  0.09677169442723854 1.125024593837347 0  0.09637812005447888 1.131600997033756 0  0.09602827298084238 1.138031997847958 0  0.09571963585538867 1.144320585137491 0  0.09544981410873254 1.150469709236281 0  0.09521653091090854 1.156482271096842 0  0.09501762139786152 1.162361132495572 0  0.09485102799585166 1.168109105493136 0  0.09471479534921778 1.17372895658593 0  0.09460706563777421 1.179223407979745 0  0.0945260742084173 1.184595133154879 0  0.09447014520952024 1.18984676120699 0  0.09443768756826221 1.194980871205597 0  0.09443806302859437 1.205108106364119 0  0.0944729919958105 1.210484287883107 0  0.09453577090937082 1.216142490300296 0  0.09463066380701091 1.222097360381834 0  0.0947624594889982 1.228364272753548 0  0.09493653111586542 1.234959359990207 0  0.09515890239686042 1.241899545953364 0  0.09543632088446197 1.249202574930454 0  0.09577633904503413 1.256887038135555 0  0.09618740432963668 1.264972406761361 0  0.0966789587196919 1.273479058714701 0  0.09726154875905446 1.282428302408976 0  0.09794694731159104 1.291842400140276 0  0.09874828856820561 1.301744593368398 0  0.09968021618774325 1.312159110985963 0  0.1007590472181439 1.323111179510956 0  0.1020029535614844 1.334627032832841 0  0.1034321610687219 1.346733904327509 0  0.1050691685317944 1.359460008750532 0  0.1069389890698906 1.372834517030006 0  0.1090694154101453 1.386887516567777 0  0.1114913103057413 1.401649949581689 0  0.1142389217184392 1.41715351493907 0  0.1173502356392664 1.433430591737466 0  0.1208673508568801 1.450514074661389 0  0.1248368950934375 1.468437217466946 0  0.1293104684030106 1.487233394167611 0  0.1343451326727159 1.506935853147407 0  0.1400039326793197 1.527577381161243 0  0.1463564603139997 1.549189915865717 0  0.1534794513310238 1.571804055040348 0  0.1614574289723265 1.59544850275497 0  0.1703833808249424 1.620149393439201 0  0.1803594611147896 1.645929471137086 0  0.191497735209273 1.672807165289779 0  0.2039209237677404 1.700795448389207 0  0.2177631713050063 1.729900546040858 0  0.2331708044748657 1.760120417463775 0  0.2503030499535754 1.791442962663554 0  0.2693327082756052 1.823843972070083 0  0.2904467283334415 1.857284740872639 0  0.313846664572799 1.891709354564414 0  0.3397489262043362 1.927041546768065 0  0.3683847768932553 1.963181136608806 0  0.4 2.044900547557741 0  0.4 2.087281022887292 0  0.4 2.127282861984825 0  0.4 2.165039579363555 0  0.4 2.200677161457211 0  0.4 2.234314567819979 0  0.4 2.266064051433231 0  0.4 2.29603157133185 0  0.4 2.324317153444571 0  0.4 2.351015177861111 0  0.4 2.376214759367253 0  0.3762147593670869 2.4 0  0.3510151778609575 2.4 0  0.3243171534446052 2.4 0  0.296031571332334 2.4 0  0.2660640514341884 2.4 0  0.2343145678211326 2.4 0  0.200677161458414 2.4 0  0.165039579364376 2.4 0  0.1272828619855727 2.4 0  0.08728102288768802 2.4 0  0.04490054755804584 2.4 0  0 2.351390275785884 0  0 2.304552731578128 0  0 2.259422753650416 0  0 2.215938095776203 0  0 2.174038769221176 0  0 2.133666973505663 0  0 2.094767030761372 0  0 2.057285274882487 0  0 2.021169996669198 0  0 1.98637139041763 0  0 1.952841448848309 0  0 1.920533905270079 0  0 1.889404216687487 0  0 1.859409431581987 0  0 1.830508174253126 0  0 1.802660578364919 0  0 1.775828229457246 0  0 1.749974120892053 0  0 1.725062579668715 0  0 1.701059245975984 0  0 1.677931008439425 0  0 1.655645964869692 0  0 1.634173369332893 0  0 1.613483613383766 0  0 1.593548147670557 0  0 1.574339474861461 0  0 1.555831095205801 0  0 1.537997486363343 0  0 1.520814036475161 0  0 1.504257050792596 0  0 1.488303689738582 0  0 1.47293194468338 0  0 1.458120611126952 0  0 1.443849259716804 0  0 1.430098202826807 0  0 1.416848471990003 0  0 1.404081790973001 0  0 1.391780548456538 0  0 1.379927775838647 0  0 1.36850712315392 0  0 1.357502837034801 0  0 1.346899736933002 0  0 1.336683196700207 0  0 1.326839124824946 0  0 1.317353941220879 0  0 1.308214562093801 0  0 1.299408378803474 0  0 1.290923246392895 0  0 1.282747456144235 0  0 1.274869735093633 0  0 1.267279214098316 0  0 1.259965423665274 0  0 1.252918273094548 0  0 1.246128044148505 0  0 1.239585367106648 0  0 1.23328121948346 0  0 1.227206903233693 0  0 1.221354040630691 0  0 1.215714557462727 0  0 1.210280675039678 0  0 1.205044896789031 0  0 1.194955103210978 0  0 1.189719324960339 0  0 1.1842854425373 0  0 1.178645959369345 0  0 1.172793096766355 0  0 1.166718780516599 0  0 1.160414632893424 0  0 1.15387195585158 0  0 1.147081726905552 0  0 1.14003457633484 0  0 1.132720785901815 0  0 1.125130264906515 0  0 1.117252543855931 0  0 1.109076753607291 0  0 1.100591621196733 0  0 1.091785437906426 0  0 1.082646058779372 0  0 1.07316087517533 0  0 1.063316803300096 0  0 1.053100263067329 0  0 1.042497162965573 0  0 1.031492876846507 0  0 1.020072224161836 0  0 1.008219451544004 0  0 0.9959182090276039 0  0 0.9831515280106697 0  0 0.969901797173938 0  0 0.9561507402840164 0  0 0.9418793888739494 0  0 0.9270680553176084 0  0 0.9116963102624975 0  0 0.8957429492085807 0  0 0.8791859635261186 0  0 0.8620025136380454 0  0 0.8441689047957012 0  0 0.8256605251401634 0  0 0.8064518523311963 0  0 0.7865163866181252 0  0 0.7658266306691419 0  0 0.7443540351324957 0  0 0.7220689915629243 0  0 0.6989407540265372 0  0 0.6749374203339855 0  0 0.6500258791108374 0  0 0.6241717705458441 0  0 0.5973394216383467 0  0 0.5694918257499931 0  0 0.5405905684209703 0  0 0.5105957833153173 0  0 0.479466094732611 0  0 0.4471585511542315 0  0 0.4136286095847471 0  0 0.3788300033330131 0  0 0.3427147251195944 0  0 0.305232969240564 0  0 0.2663330264961172 0  0 0.225961230780293 0  0 0.1840619042249165 0  0 0.1405772463503563 0  0 0.09544726842240769 0  0 0.04860972421439458 0  0.04813671057256446 1.197473279821492 0  0.04895543136439754 1.151270788221793 0  0.04738437551928104 1.245081661106426 0  0.2256341401927007 0.335035210600554 0  0.0512759040765693 1.103565270882211 0  0.1570277503437201 0.4710961631110478 0  0.04891680688198799 1.294160758757891 0  0.05568190394618851 1.057427469737321 0  0.05765554841188782 1.003616718285677 0  0.1206184164719817 0.6010910013922988 0  0.2174958646397733 2.217495864639892 0  0.06616240375728431 1.175917411653735 0  0.09608236746672907 0.7063802628109249 0  0.02794287230014219 1.219415480129978 0  0.06431259901636358 1.220489754068911 0  0.02794535307324082 1.174496345043953 0  0.06296426494091534 0.9414057385563683 0  0.08050882020181049 0.7988485989880517 0  0.0719103235923903 0.86993553852932 0  0.1823275170984414 2.037281568815077 0  0.04971518892196945 1.344501211918876 0  0.2490207822396599 0.1848651832981602 0  0.052494558421043 1.396392612075255 0  0.1344185702276811 1.870543477222118 0  0.07221302203322316 1.197443967850841 0  0.06629456243276534 1.127713702579542 0  0.03033713389389925 1.127495065716931 0  0.02186182423217333 1.197477551605483 0  0.06191152475830487 1.458801491557402 0  0.1109984100569154 1.762901175174654 0 
[...]
<PointData  Scalars="f_36"> 
<DataArray  type="Float64"  Name="f_36"  format="ascii">3.2320589713712666e-01  6.9308347570292819e-02  3.8547110554605975e-02  7.1231501433112021e-02  7.6475994782962242e-02  3.2871043158271973e-01  3.3197192415939894e-02  1.0963073779532961e+00  1.7244236422321091e-01  1.3952183797422732e-01  1.0806013510587414e-01  7.4622572441145646e-02  4.7975659396099872e-02  3.9806917268104224e-02  3.8046269582296420e-02  1.3203105314767824e-01  1.3278200043268382e-01  1.4357720981382066e-01  1.5357542730173718e-01  1.2414182527488019e-01  1.3813446003842619e-01  1.3109696628428458e-01  1.1936520946108942e-01  1.1086169485990101e-01  9.1229566375704479e-02  6.4439004358008103e-02  6.6692813196480308e-02  9.5749636345158914e-02  1.1100890381055419e-01  1.3533338037339093e-01  1.4301042153728902e-01  1.3889742656544410e-01  1.4536212789207067e-01  1.4876481878054279e-01  1.4555604368919361e-01  1.3108692807111749e-01  1.2324334592768228e-01  1.2873460041011495e-01  1.2203921555974638e-01  1.0951715865302382e-01  1.0442319148515000e-01  7.1165558697673131e-02  5.7336990068038857e-02  5.6843900747089372e-02  2.5453924286774569e-02  3.0343457645876971e-02  8.4882445062644789e-03  2.9246317407195310e-02  3.5291035764038421e-02  7.2229631688852047e-02  8.4932474419838463e-02  1.0165335430332682e-01  1.4545068954218324e-01  1.6556223752177962e-01  1.8652975988236742e-01  2.3097243407567233e-01  2.5237226667841989e-01  2.8603270476765980e-01  3.2057036839854675e-01  3.6003267749577339e-01  3.8128934986640306e-01  4.2900720035167894e-01  4.5519960857524638e-01  4.9040328091013818e-01  5.1764264400411109e-01  5.6822172654586978e-01  5.9342499826161466e-01  6.1273345507454602e-01  6.6685443047373283e-01  6.8930128093149867e-01  7.0888547920054634e-01  7.6392606957849662e-01  7.8261956209101236e-01  7.8949716325070707e-01  8.4751430909554348e-01  8.6434667770751783e-01  8.7471617131742141e-01  9.2330984119044957e-01  9.2938858882922004e-01  9.5608569907217922e-01  9.7668043573076946e-01  9.7543285136678182e-01  9.8964227099407243e-01  1.0079751873230829e+00  1.0276189353116705e+00  1.0528050393541488e+00  1.0606490480961497e+00  1.0552503079572635e+00  1.0546980622804762e+00  1.0867639602342178e+00  1.0924348388723135e+00  1.0768120325180910e+00  1.1049511305008213e+00  1.1021163712584947e+00  1.0923397632862768e+00  1.0969585918119418e+00  1.0935229291786732e+00  1.1047366634000786e+00  1.1046998536047028e+00  1.0816470805463103e+00  1.0949290176603999e+00  1.0952167751953596e+00  1.0578469982414453e+00  1.0614799675382021e+00  1.0344563031673615e+00  1.0428913787061103e+00  1.0242824894258580e+00  9.9478848724886315e-01  9.6996410308225722e-01  9.4499893860889750e-01  9.2894077241264661e-01  8.7874145569242634e-01  8.6953874586941016e-01  7.9336595289744694e-01  7.8275389614851620e-01  7.2284015290115700e-01  6.7669607286121114e-01  6.2732980033518926e-01  5.7432423131522936e-01  5.1093777253475192e-01  4.5624723912685133e-01  4.0899347114172402e-01  3.4041701417690440e-01  2.9757768568004811e-01  2.3762637066798750e-01  1.6602026659040983e-01  1.5235525183376231e-01  7.3132930358034809e-02  6.9540663124375637e-02  2.6027975991410365e-02  3.8616374641818184e-02  3.6180736066955911e-02  1.1615857519241701e-01  8.7792666573825798e-02  1.2094779623367723e-01  1.2958832247758428e-01  1.5505741892293129e-01  1.5588817623106765e-01  1.1753453535557828e-01  1.0244403403711257e-01  8.7218898391165228e-02  1.1273773858978826e-01  1.2633866860657181e-01  1.2865038898037748e-01  1.4317858865414168e-01  1.4665277034240062e-01  1.3019408019086509e-01  1.4698480288984259e-01  1.2796844717252093e-01  1.3042546635871372e-01  1.1611401772861372e-01  4.9911979066794954e-02  3.1509927458107163e-02  4.5494537542468488e-02  4.5649653707642172e-02  5.4093214106839822e-02  6.3868508253860756e-02  8.0717714208723604e-02  9.9062298153565348e-02  1.2443474674599973e-01  1.5312230866179841e-01  1.8028661664562720e-01  4.3022714827303482e-01  3.6168258332057263e-01  3.8117462096770749e-01  3.8295492141516441e-01  3.8706584476083067e-01  3.9917904941906124e-01  4.1112824957102140e-01  4.2045534513243915e-01  4.2782166063849503e-01  4.3175974171798492e-01  4.5483612500265969e-01  4.6230893830870712e-01  4.7945990243721104e-01  4.9054603474056097e-01  5.0606436375930053e-01  5.1706213602338325e-01  5.3317156439248603e-01  5.4442729579721771e-01  5.3350677811916247e-01  5.4098705994143970e-01  5.5133529309380735e-01  5.5214680750946654e-01  5.3812296414242222e-01  5.3369067833351336e-01  5.3524675583366299e-01  5.2175575845697386e-01  5.0571073732370042e-01  4.9103446001331019e-01  4.7428867165980787e-01  4.5825330652481999e-01  4.3571872719768434e-01  4.1950476382720109e-01  3.9299773006500022e-01  3.7134580306363246e-01  3.5435348662374705e-01  3.2519570565174810e-01  2.9889152335782626e-01  2.8129742867573515e-01  2.6455920757724399e-01  2.3256611190891072e-01  2.2006146484352129e-01  1.8914724130653876e-01  1.8215856830999483e-01  1.5050922443532244e-01  1.4887652696958001e-01  1.2232041526742700e-01  1.0915504090238655e-01  1.0551091824303230e-01  1.0301728643518974e-01  7.7454814656594678e-02  6.8728170851270712e-02  7.5130003342552099e-02  5.2366929515383118e-02  5.2792012170981596e-02  5.7854632305637588e-02  3.4095154951515001e-02  2.9768170734766203e-02  4.3280106756712219e-02  2.5535763258133379e-02  2.6382915182228458e-02  3.5448756009143823e-02  3.4389318173982032e-02  3.7065477284762297e-02  2.6591515692003048e-02  2.4786649037911643e-02  4.6737999575545738e-02  4.5206787928161157e-02  4.2090792270984799e-02  6.1668485147380839e-02  4.9340880007841918e-02  5.9849494025989394e-02  6.7181498098192599e-02  6.4084097673140911e-02  1.1093617367444437e-01  9.8033062945743141e-02  1.0811829603031761e-01  1.1700133631670033e-01  1.4686140583854579e-01  1.6789273370476723e-01  1.7172658934910923e-01  1.9390192655516242e-01  2.1942251097638357e-01  2.2820675052141465e-01  2.6543037112569262e-01  2.7425502322975059e-01  3.0952481191346148e-01  3.2483440374635164e-01  3.4506407076430068e-01  3.6708244578349875e-01  3.9451830785679060e-01  4.1734886598343929e-01  4.3360143601608314e-01  4.5934754011183765e-01  4.7409931347869516e-01  4.9026106910548478e-01  5.0649583054871961e-01  5.1349653495218250e-01  5.3691447821081295e-01  5.2683859127582966e-01  5.6551973910949682e-01  5.3381451919032341e-01  5.5770527344448728e-01  5.3858509477089589e-01  5.4655692138616052e-01  5.4388595163667375e-01  5.2960320853635434e-01  5.2832377238197670e-01  4.9513421462590212e-01  5.0120650867216021e-01  4.7332286917271194e-01  4.7049437678700157e-01  4.5812288635113185e-01  4.5261929119777966e-01  4.1979934015859227e-01  4.2152184329949233e-01  3.9952154418121694e-01  4.0305380811651070e-01  3.9394615938418731e-01  3.7241022795505224e-01  3.8351542428818036e-01  3.6447412960547770e-01  4.1277927681011839e-01  5.4447821847202660e-01  5.4570096237566179e-01  5.3308368348430413e-01  6.0105194807611978e-02  5.3710326573927170e-01  1.6015466396597397e-01  5.2238070926361213e-01  5.2555838956856948e-01  4.8442763671444955e-01  2.2729792910245245e-01  1.0569283279500181e-01  7.3825039727126096e-01  2.7622666715414829e-01  3.3040009244466678e-01  7.2219776342535702e-01  3.3041355669977940e-01  4.4078890062329751e-01  3.4076007086818072e-01  3.8707054934785279e-01  1.2441058244310332e-01  4.9046258167008472e-01  5.5433801931022098e-02  4.7095918728116720e-01  1.9485528743716993e-01  8.0147239168538098e-01  6.9181181852617080e-01  3.5970628121647219e-01  2.7888616155273316e-01  4.4404749147339423e-01  2.3636250267126180e-01  3.6844460886134439e-01  2.0951320682616840e-02  3.8931264906128116e-01  3.4356801927814312e-01  7.9054126577858730e-01  6.7540065908382396e-01  3.1772176627181070e-01  2.9661612816373384e-01  7.1933684983855295e-01  7.3332712438507766e-02  2.3620411249477988e-01  3.9453037670804070e-01  7.8841286733196192e-01  2.0350096681320015e-01  1.3964431766148946e-01  5.9206900709568400e-01  4.9752446813733864e-01  5.1559711924289264e-01  5.8171788572486137e-02  2.2784899372668618e-01  3.9958966006332958e-01  5.3114088552929373e-01  1.1333366252767705e-02  4.2441698053555560e-01  3.3171268502495538e-01  3.8003004763999398e-01  7.5343132010723857e-01  2.1729208066452260e-02  3.0020997109431402e-01  3.3745420228858641e-01  2.3580679961126108e-01  2.9161653234009532e-01  8.7891011736925248e-02  6.4880998792761913e-01  2.3881009364794543e-02  4.2052939198823869e-01  2.6125767329272981e-01  3.5931193216766316e-01  2.2638952667679435e-01  1.5474199308805661e-01  3.2181181428075134e-01  4.2904139625018917e-01  3.9054020730245048e-01  2.0143098199742865e-01  6.8153168779950868e-01  5.6618934420334421e-01  8.9898878650230796e-01  5.2867001379382106e-01  7.3604245979938632e-01  9.0043817329761811e-01  5.8714198539669783e-02  6.6622759122056552e-01  4.0273417900234049e-01  8.8979992554868381e-01  2.0212399624460028e-01  3.0656505584760080e-01  4.1323938428216100e-01  1.9383483766107373e-01  6.7208109003836269e-01  4.4647963503691962e-01  4.0090279700993681e-01  4.5030451091662582e-01  1.2028070650218643e-01  4.2304043550554149e-01  4.3602181559263548e-01  3.3262504580229979e-01  2.9488249419305872e-02  2.2002967197840265e-01  1.9806062361478419e-01  5.6954735236018283e-01  3.4833128071723000e-02  8.8718139795136841e-01  3.5653128283808921e-01  9.8440470158027635e-02  6.1430805497742702e-01  6.1862238162933947e-01  4.2321377821337258e-01  8.6252972452901855e-01  3.9148944494390636e-01  5.3111385455921534e-01  3.6348014165437798e-01  3.2940928286271953e-01  2.2255159592409737e-01  3.5728796542282915e-01  4.9318651330960328e-01  4.3070475951892762e-01  4.2105152070818030e-01  2.8321553916974657e-01  5.9702811125395064e-02  2.1459440167529261e-02  5.2541612909508495e-01  2.3468284126004019e-01  2.3334934560916726e-01  1.9594264030226245e-02  6.6790779156134406e-01  6.5771473841432981e-01  1.1445239199536295e-01  4.1858635834117480e-01  4.0895464612907506e-01  3.9065532572665973e-01  4.1246987583285932e-01  2.0027125186444683e-01  3.9693637951125610e-01  6.4378228480473518e-02  5.6479883335952281e-02  8.3312466322797762e-01  4.2209923396540577e-01  3.9317389087362609e-01  2.3964467660993402e-01  8.7710200166487853e-02  3.2494285681669843e-01  4.3869485050750834e-01  4.3617619942388836e-01  8.3469377954647972e-01  3.0204906223034855e-01  6.4421895734106727e-01  1.7331893038599799e-01  3.8460425697581235e-02  2.9001904775687276e-01  2.1592903255904167e-01  1.8426958278963824e-02  5.0057589630722854e-01  4.2397656840003801e-02  4.7720357079644804e-01  9.6836408510147287e-01  2.4790656463658586e-01  1.1807680037239315e-01  3.8786654270183141e-01  1.3649190427904367e-01  7.9296092234009019e-01  6.3736439772091369e-02  2.4098641189710199e-01  6.4161427266827664e-01  1.5752021910048880e-01  6.0558327063414033e-02  4.2035239370110494e-01  2.7096020861478826e-01  2.8488478825687691e-01  7.0328579031063182e-02  5.2503289806919129e-01  7.7600277685166219e-01  5.0550581625175985e-02  6.1903621722393255e-02  5.4189766283679952e-01  7.2485435545482757e-01  4.6947486870966920e-01  4.3907982364823589e-01  3.3960505471935964e-01  1.6427423199742944e-01  4.3639685730696937e-01  2.9988189685225813e-01  9.3420813960811933e-01  3.2924377842859714e-01  4.8995536413436447e-01  6.8898016185590460e-01  1.8039009937411379e-01  4.2295588622441410e-01  6.4781771620064166e-01  7.9354236687603538e-02  3.0345984463425957e-01  2.7406328026587068e-01  3.7222395545280912e-01  8.2979181923713086e-01  5.5552479030747970e-01  7.2407487478026344e-01  7.7198978191924353e-02  4.2212652054685551e-01  9.3561505423947677e-01  4.1106712069792661e-01  6.6563756148532627e-01  6.3472752183576175e-01  5.1283389805602475e-01  4.4787365955443964e-01  5.0923428620569566e-01  1.9445816433592103e-01  6.1388197883891889e-02  2.9166709110405503e-01  7.6932288042221186e-01  8.4744148823793858e-02  4.3328443549951778e-01  5.0222976082979465e-01  2.3095342931518697e-02  4.2173960459610818e-02  3.0437758419629068e-01  1.3694292485798654e-01  1.2697003978586030e-01  2.7648273363752068e-01  2.2787910964412353e-01  3.6059467902949005e-01  4.1928578233151909e-01  5.0289151492608875e-01  6.4759697284071038e-01  3.0886317297880178e-01  4.0890312160834286e-01  7.7767785910789111e-01  5.8014751216852412e-01  1.4724823315754826e-01  6.1455977159929243e-01  4.6232132280084703e-01  3.4329243592172209e-01  1.9483699391562775e-01  3.2885062982085128e-01  6.2980228202005117e-01  2.1402536498115263e-01  3.1989431158613535e-01  6.5489396716511536e-02  7.8927271503459506e-01  4.2892696535882735e-01  5.8840486370643807e-01  4.0010664101100341e-01  4.4063144407244781e-01  1.6565915243705115e-01  4.9684127856824306e-01  4.2272960267173748e-01  4.4004053079811334e-01  4.1803018599473735e-01  6.0887234804091424e-02  1.5599253898426702e-01  9.6742239133557650e-01  2.9277577853651571e-01  3.7262207572105993e-01  5.0897319731730528e-01  2.7759274612719254e-01  4.1152112325551149e-01  1.6132536070966147e-01  6.4158696312714569e-01  1.3482368815310300e-01  3.7669475366203098e-01  1.3275643788276359e-01  1.1281474519168827e-01  3.0368213440228026e-01  1.5516330346989629e-01  6.1198159962341814e-01  2.4858787391657858e-01  2.6890589654131708e-01  3.5522929567885120e-01  6.3095990056836437e-01  3.2416261828530274e-01  1.3829867827365183e-01  3.4824687394500919e-01  4.3334930558846119e-01  1.6311331972428567e-01  9.6972419388029785e-01  4.2819296403299173e-01  2.1745951101336258e-01  2.4353054663276569e-01  2.8506506461504733e-01  3.3911747477417586e-01  9.3601229953262877e-01  4.4663664836551775e-01  4.4775036076637603e-01  4.4827394513904002e-02  8.5754821479907573e-01  4.2843044007765180e-01  3.8851234261128287e-01  4.4981636444830631e-01  3.4769157240364473e-01  7.1719368218605098e-02  3.3752836835317523e-01  4.4275038942874788e-02  4.8198902703996749e-01  5.9282225911039055e-01  9.9194482391190630e-01  3.1155409802553130e-01  3.3984122564684438e-01  9.9384292789958339e-01  2.1416619914168711e-01  6.8912314869176039e-02  4.2990510747704169e-01  1.1852277586538199e-01  1.2366352939064781e-01  9.0814751016501827e-01  1.9057107265930678e-01  7.2983231439607707e-02  4.2915512254701610e-01  8.4248981023866154e-01  7.4543943028893833e-01  3.9119999893997043e-01  2.4752526811266901e-01  3.6009841554420802e-01  4.6758212200862004e-01  3.9626656451147990e-02  3.7942758271736554e-01  3.5564422670104850e-01  5.3909239066148244e-02  3.0818329968474717e-01  2.9153164119573233e-01  1.5311797472206157e-01  1.8530753782356885e-01  4.6368800292213563e-01  4.4406504435128008e-01  5.1634682868113346e-01  4.3757741331998012e-01  3.5711641676746936e-01  4.6469771786816694e-01  5.8400296350796466e-01  2.4113369178435176e-01  4.4384643987583539e-01  3.8225188633887125e-01  2.1434160958387782e-01  8.1508169258570864e-02  3.5516782068004976e-01  2.0701064082672332e-01  7.6574836808360658e-01  8.4380527418347773e-01  2.7534772478454755e-01  7.2393992773585589e-02  5.7295559857895406e-01  7.7224253070805660e-02  2.1858779684817770e-01  4.1777154393543187e-01  7.2213232132651251e-01  1.7386603983529300e-01  3.0631372023093145e-01  5.7205262995766337e-01  1.2888552867154046e-01  2.7118316975806162e-02  5.3900237105668458e-01  3.8631251837021852e-01  3.1430668897417091e-01  5.8228941468055262e-01  7.0305350807671321e-02  4.2651036333743103e-01  5.3200223579165051e-01  2.1163892759869965e-01  7.8262734513931231e-02  8.8178175323410235e-01  4.2316333598136435e-01  7.3186238291321995e-02  8.8877753721225264e-02  7.6058909562387111e-01  3.3669161463243724e-01  8.8029885177304623e-01  4.1178779830036144e-01  6.1287229782292096e-01  4.5992319575953799e-01  7.3882333754448659e-01  4.1506925069939010e-01  9.3013778306217976e-01  7.9976710362625686e-02  1.3384177663277388e-01  5.5721047628612397e-01  1.2411381884922620e-01  4.2753332273263100e-01  2.1114163741644676e-01  6.7716550617496030e-01  4.2378343453909634e-01  1.5408022064737542e-01  5.3521684212908549e-01  4.7793629101765639e-01  3.1808618825131135e-01  4.6699573304510078e-01  3.7315999622783058e-01  8.2651966071821945e-02  6.7560912852763000e-01  9.8402788901954508e-01  4.2509760526046492e-01  3.7481511308937959e-01  4.7030771790203479e-01  3.3466260924966640e-01  1.2888861415215355e-01  4.5083661617971815e-01  3.9290191214885466e-02  1.6849061045250296e-01  6.3855395950262989e-02  3.1570079568424447e-01  4.8284498928142566e-01  1.8101897800324247e-02  6.2953665736946485e-01  3.1003676806139802e-01  3.6472356112882603e-02  5.8357551114546125e-01  7.8808868557005562e-01  1.0752212613574194e-01  2.7721993693638997e-01  6.8899409137504830e-01  1.2226521695809794e-01  3.9343148081931750e-01  3.9841211325909848e-01  8.2205368881621976e-01  8.1965500131814184e-01  1.5242069263610783e-01  4.8630520491278167e-01  6.0687603695255343e-01  8.9410553399055326e-01  4.9922686207868872e-01  6.9153565847395404e-02  6.2895423115728055e-01  8.1677112915655026e-01  1.4113013838101177e-01  7.8157314694371638e-01  3.7631008960444068e-01  7.5668573294230462e-02  6.8064637098816205e-01  7.0991597619359803e-01  1.6562531506209843e-01  8.9673341063844628e-02  1.9631764163678578e-01  3.6319160850044530e-01  8.2936175336759163e-02  3.4533897735436214e-01  4.5198908932896792e-01  2.9308555401501159e-02  4.3968995445206971e-01  5.2574633199812326e-01  7.1085688913432210e-01  7.1007626840970373e-01  3.1608022936254465e-01  7.1381569144005219e-01  1.1044952998246305e-01  2.4212222689793447e-01  6.0417209618582446e-01  2.9388323215292489e-01  5.3615679988824161e-01  3.7145728584067744e-01  1.4851154549874235e-01  8.5470574770539343e-01  4.3114336875112508e-01  6.5133637344121253e-01  4.1205047403655937e-01  5.4305753522761679e-01  8.1284553486363084e-02  2.2963437260487121e-01  4.6105791060744633e-01  4.2322455235154832e-01  7.6727759015692065e-02  2.3406418572719342e-01  4.2248985642970976e-01  1.5544726791457903e-02  9.7226982291690811e-01  2.6161876974695275e-01  3.8839370356639324e-01  2.3561256446495998e-01  4.4368030127413005e-01  3.7299245978594958e-01  3.1113157202030395e-01  2.2803176894796434e-01  3.6371563005899755e-02  8.3367541332223372e-01  2.7046819629056151e-01  1.8557113792899999e-01  3.1931091852437177e-01  3.6204592527451916e-02  3.2719262743237504e-01  9.3678793626531898e-01  2.4141153072945579e-01  5.3971498431445852e-01  2.8116719453915295e-01  2.4510436478394668e-01  4.6738328223759529e-01  2.8042481342945381e-02  5.9206830534286414e-01  2.6866465816545582e-01  2.8240925892898927e-01  1.7242094215283905e-02  8.0295904917464689e-01  3.6131862336979209e-01  4.3445125351384617e-01  4.9771791827864280e-02  4.0847773436602475e-01  4.9406109315716490e-01  3.4048689093175011e-01  7.1499666979757925e-01  1.0013513055717169e+00  4.7784077131268238e-01  8.5902771444686707e-02  2.4425109706571298e-02  5.9553426568944789e-01  2.7707099505896904e-01  2.1803974573595047e-01  1.1159472596187313e-01  8.0334933847004034e-02  1.3842097669451017e-01  4.1545814999561070e-01  4.8895827674501807e-01  4.0442421079469430e-02  2.7914847518653946e-01  2.8142277130604193e-01  4.6880177915713600e-01  1.0015346741069400e+00  6.4948498148578926e-01  5.4302236715603769e-01  2.4580321430052118e-01  4.6880770912319136e-01  4.3762957841896888e-01  3.6291016866859299e-01  2.2996763768488288e-01  3.7505152860099672e-01  5.9475365059248619e-01  4.4680722048942573e-01  3.8597638115316302e-01  3.3448982165416405e-02  8.0738062912227487e-02  2.2105213537011206e-01  1.1894908639117442e-01  2.8759234279005735e-01  8.0366320136176428e-01  2.8298788571170724e-01  3.8424366980932478e-01  4.2925576133214588e-01  8.4559245678744499e-01  3.4588438193810689e-01  4.7603086777396379e-02  1.3875040931866336e-01  4.6195864055099417e-01  2.9926756672650190e-01  4.2839435247139607e-01  2.3666795730483564e-01  4.4415586024526532e-01  2.9969185884586874e-01  3.5221763309509879e-01  1.1893405983123312e-01  2.0033453951677904e-01  4.0539387807624888e-01  1.3194826513777588e-01  5.3779889716027443e