<?xml version="1.0"?>
<VTKFile type="UnstructuredGrid"  version="0.1"  >
<UnstructuredGrid>
<Piece  NumberOfPoints="2064" NumberOfCells="3842">
<Points>
<DataArray  type="Float64"  NumberOfComponents="3"  format="ascii">0 0 0  0.4 0 0  0.4 0.4 0  0.4 2 0  0.4 2.4 0  0 2.4 0  0 1.2 0  0.09442719099991592 1.2 0  0.04999999999991419 0 0  0.09999999999976655 0 0  0.1499999999996174 0 0  0.1999999999994737 0 0  0.2499999999996012 0 0  0.2999999999997341 0 0  0.3499999999998725 0 0  0.4 0.04490054755780609 0  0.4 0.08728102288719632 0  0.4 0.127282861984852 0  0.4 0.1650395793634534 0  0.4 0.2006771614573222 0  0.4 0.2343145678202487 0  0.4 0.2660640514334936 0  0.4 0.2960315713318087 0  0.4 0.3243171534442337 0  0.4 0.3510151778607238 0  0.4 0.3762147593669765 0  0.3838325644673298 0.4184519041479398 0  0.3683953300346307 0.4368060584116434 0  0.3536615979029293 0.4550435590956501 0  0.3396051856135377 0.473147237722841 0  0.3262004928426353 0.4911015157475286 0  0.3134225038405827 0.5088923356151951 0  0.3012468350136632 0.5265070301161103 0  0.289649727202514 0.5439342653019726 0  0.2786080797806054 0.5611639229961951 0  0.2680994518128559 0.5781870282993612 0  0.2581020577925817 0.594995687384956 0  0.2485947966955289 0.6115829684453767 0  0.2395572159226798 0.6279428912420084 0  0.2309695402541045 0.6440703056409012 0  0.2228126456010115 0.6599608661499604 0  0.2150680649468926 0.6756109488118054 0  0.2077179652425745 0.6910176244172292 0  0.2007451581747424 0.7061785635724216 0  0.1941330685533778 0.7210920296031775 0  0.187865731362808 0.7357568136786556 0  0.1819277784059361 0.7501721918577611 0  0.1763044223842591 0.7643378897548474 0  0.1709814462523012 0.7782540354567948 0  0.1659451816940687 0.7919211416000106 0  0.1611825004958043 0.8053400559415214 0  0.1566807969567119 0.8185119361740301 0  0.1524279714485859 0.8314382242497815 0  0.1484124145310832 0.8441206213966692 0  0.1446229953612439 0.8565610509978405 0  0.1410490406726472 0.8687616532651306 0  0.1376803237536894 0.8807247502294573 0  0.1345070480820316 0.8924528295474728 0  0.1315198313379682 0.9039485300761398 0  0.1287096917422226 0.9152146212945773 0  0.1260680347252623 0.926253982770195 0  0.1235866354816217 0.9370696032148178 0  0.1212576294634056 0.9476645488952582 0  0.1190734945680743 0.9580419699947785 0  0.1170270419973136 0.9682050709600152 0  0.1151114007074783 0.9781571124265547 0  0.1133200055160031 0.9879013993486245 0  0.1116465857084123 0.9974412684028026 0  0.1100851540973415 1.00678007446057 0  0.1086299919107812 1.015921205370188 0  0.1072756432488249 1.024868042116264 0  0.1060168996208661 1.033623982063629 0  0.1048487921770971 1.042192417627859 0  0.1037665809790429 1.050576736266659 0  0.1027657469680525 1.058780303045589 0  0.1018419796222241 1.066806480626017 0  0.1009911707048814 1.074658604354542 0  0.100209404358178 1.082339989509986 0  0.09949294970732381 1.089853919786047 0  0.09883825188846673 1.097203654372538 0  0.09824192517424879 1.104392417551853 0  0.09770074530898887 1.111423399342931 0  0.09721164246300873 1.118299753112525 0  0.09677169442723854 1.125024593837347 0  0.09637812005447888 1.131600997033756 0  0.09602827298084238 1.138031997847958 0  0.09571963585538867 1.144320585137491 0  0.09544981410873254 1.150469709236281 0  0.09521653091090854 1.156482271096842 0  0.09501762139786152 1.162361132495572 0  0.09485102799585166 1.168109105493136 0  0.09471479534921778 1.17372895658593 0  0.09460706563777421 1.179223407979745 0  0.0945260742084173 1.184595133154879 0  0.09447014520952024 1.18984676120699 0  0.09443768756826221 1.194980871205597 0  0.09443806302859437 1.205108106364119 0  0.0944729919958105 1.210484287883107 0  0.09453577090937082 1.216142490300296 0  0.09463066380701091 1.222097360381834 0  0.0947624594889982 1.228364272753548 0  0.09493653111586542 1.234959359990207 0  0.09515890239686042 1.241899545953364 0  0.09543632088446197 1.249202574930454 0  0.09577633904503413 1.256887038135555 0  0.09618740432963668 1.264972406761361 0  0.0966789587196919 1.273479058714701 0  0.09726154875905446 1.282428302408976 0  0.09794694731159104 1.291842400140276 0  0.09874828856820561 1.301744593368398 0  0.09968021618774325 1.312159110985963 0  0.1007590472181439 1.323111179510956 0  0.1020029535614844 1.334627032832841 0  0.1034321610687219 1.346733904327509 0  0.1050691685317944 1.359460008750532 0  0.1069389890698906 1.372834517030006 0  0.1090694154101453 1.386887516567777 0  0.1114913103057413 1.401649949581689 0  0.1142389217184392 1.41715351493907 0  0.1173502356392664 1.433430591737466 0  0.1208673508568801 1.450514074661389 0  0.1248368950934375 1.468437217466946 0  0.1293104684030106 1.487233394167611 0  0.1343451326727159 1.506935853147407 0  0.1400039326793197 1.527577381161243 0  0.1463564603139997 1.549189915865717 0  0.1534794513310238 1.571804055040348 0  0.1614574289723265 1.59544850275497 0  0.1703833808249424 1.620149393439201 0  0.1803594611147896 1.645929471137086 0  0.191497735209273 1.672807165289779 0  0.2039209237677404 1.700795448389207 0  0.2177631713050063 1.729900546040858 0  0.2331708044748657 1.760120417463775 0  0.2503030499535754 1.791442962663554 0  0.2693327082756052 1.823843972070083 0  0.2904467283334415 1.857284740872639 0  0.313846664572799 1.891709354564414 0  0.3397489262043362 1.927041546768065 0  0.3683847768932553 1.963181136608806 0  0.4 2.044900547557741 0  0.4 2.087281022887292 0  0.4 2.127282861984825 0  0.4 2.165039579363555 0  0.4 2.200677161457211 0  0.4 2.234314567819979 0  0.4 2.266064051433231 0  0.4 2.29603157133185 0  0.4 2.324317153444571 0  0.4 2.351015177861111 0  0.4 2.376214759367253 0  0.3762147593670869 2.4 0  0.3510151778609575 2.4 0  0.3243171534446052 2.4 0  0.296031571332334 2.4 0  0.2660640514341884 2.4 0  0.2343145678211326 2.4 0  0.200677161458414 2.4 0  0.165039579364376 2.4 0  0.1272828619855727 2.4 0  0.08728102288768802 2.4 0  0.04490054755804584 2.4 0  0 2.351390275785884 0  0 2.304552731578128 0  0 2.259422753650416 0  0 2.215938095776203 0  0 2.174038769221176 0  0 2.133666973505663 0  0 2.094767030761372 0  0 2.057285274882487 0  0 2.021169996669198 0  0 1.98637139041763 0  0 1.952841448848309 0  0 1.920533905270079 0  0 1.889404216687487 0  0 1.859409431581987 0  0 1.830508174253126 0  0 1.802660578364919 0  0 1.775828229457246 0  0 1.749974120892053 0  0 1.725062579668715 0  0 1.701059245975984 0  0 1.677931008439425 0  0 1.655645964869692 0  0 1.634173369332893 0  0 1.613483613383766 0  0 1.593548147670557 0  0 1.574339474861461 0  0 1.555831095205801 0  0 1.537997486363343 0  0 1.520814036475161 0  0 1.504257050792596 0  0 1.488303689738582 0  0 1.47293194468338 0  0 1.458120611126952 0  0 1.443849259716804 0  0 1.430098202826807 0  0 1.416848471990003 0  0 1.404081790973001 0  0 1.391780548456538 0  0 1.379927775838647 0  0 1.36850712315392 0  0 1.357502837034801 0  0 1.346899736933002 0  0 1.336683196700207 0  0 1.326839124824946 0  0 1.317353941220879 0  0 1.308214562093801 0  0 1.299408378803474 0  0 1.290923246392895 0  0 1.282747456144235 0  0 1.274869735093633 0  0 1.267279214098316 0  0 1.259965423665274 0  0 1.252918273094548 0  0 1.246128044148505 0  0 1.239585367106648 0  0 1.23328121948346 0  0 1.227206903233693 0  0 1.221354040630691 0  0 1.215714557462727 0  0 1.210280675039678 0  0 1.205044896789031 0  0 1.194955103210978 0  0 1.189719324960339 0  0 1.1842854425373 0  0 1.178645959369345 0  0 1.172793096766355 0  0 1.166718780516599 0  0 1.160414632893424 0  0 1.15387195585158 0  0 1.147081726905552 0  0 1.14003457633484 0  0 1.132720785901815 0  0 1.125130264906515 0  0 1.117252543855931 0  0 1.109076753607291 0  0 1.100591621196733 0  0 1.091785437906426 0  0 1.082646058779372 0  0 1.07316087517533 0  0 1.063316803300096 0  0 1.053100263067329 0  0 1.042497162965573 0  0 1.031492876846507 0  0 1.020072224161836 0  0 1.008219451544004 0  0 0.9959182090276039 0  0 0.9831515280106697 0  0 0.969901797173938 0  0 0.9561507402840164 0  0 0.9418793888739494 0  0 0.9270680553176084 0  0 0.9116963102624975 0  0 0.8957429492085807 0  0 0.8791859635261186 0  0 0.8620025136380454 0  0 0.8441689047957012 0  0 0.8256605251401634 0  0 0.8064518523311963 0  0 0.7865163866181252 0  0 0.7658266306691419 0  0 0.7443540351324957 0  0 0.7220689915629243 0  0 0.6989407540265372 0  0 0.6749374203339855 0  0 0.6500258791108374 0  0 0.6241717705458441 0  0 0.5973394216383467 0  0 0.5694918257499931 0  0 0.5405905684209703 0  0 0.5105957833153173 0  0 0.479466094732611 0  0 0.4471585511542315 0  0 0.4136286095847471 0  0 0.3788300033330131 0  0 0.3427147251195944 0  0 0.305232969240564 0  0 0.2663330264961172 0  0 0.225961230780293 0  0 0.1840619042249165 0  0 0.1405772463503563 0  0 0.09544726842240769 0  0 0.04860972421439458 0  0.04813671057256446 1.197473279821492 0  0.04895543136439754 1.151270788221793 0  0.04738437551928104 1.245081661106426 0  0.2256341401927007 0.335035210600554 0  0.0512759040765693 1.103565270882211 0  0.1570277503437201 0.4710961631110478 0  0.04891680688198799 1.294160758757891 0  0.05568190394618851 1.057427469737321 0  0.05765554841188782 1.003616718285677 0  0.1206184164719817 0.6010910013922988 0  0.2174958646397733 2.217495864639892 0  0.06616240375728431 1.175917411653735 0  0.09608236746672907 0.7063802628109249 0  0.02794287230014219 1.219415480129978 0  0.06431259901636358 1.220489754068911 0  0.02794535307324082 1.174496345043953 0  0.06296426494091534 0.9414057385563683 0  0.08050882020181049 0.7988485989880517 0  0.0719103235923903 0.86993553852932 0  0.1823275170984414 2.037281568815077 0  0.04971518892196945 1.344501211918876 0  0.2490207822396599 0.1848651832981602 0  0.052494558421043 1.396392612075255 0  0.1344185702276811 1.870543477222118 0  0.07221302203322316 1.197443967850841 0  0.06629456243276534 1.127713702579542 0  0.03033713389389925 1.127495065716931 0  0.02186182423217333 1.197477551605483 0  0.06191152475830487 1.458801491557402 0  0.1109984100569154 1.762901175174654 0 
[...]
<PointData  Vectors="f_132"> 
<DataArray  type="Float64"  Name="f_132"  NumberOfComponents="3" format="ascii">0.0000000000000000e+00 0.0000000000000000e+00 0.0000000000000000e+00  0.0000000000000000e+00 0.0000000000000000e+00 0.0000000000000000e+00  -3.9139831495035278e-03 5.4344934664211642e-03 0.0000000000000000e+00  -3.9283003292316506e-03 9.4550426941551080e-02 0.0000000000000000e+00  0.0000000000000000e+00 1.0000000000000002e-01 0.0000000000000000e+00  0.0000000000000000e+00 9.9999999999999992e-02 0.0000000000000000e+00  0.0000000000000000e+00 5.0006468768539078e-02 0.0000000000000000e+00  -3.1334974018921765e-03 5.0007227120324793e-02 0.0000000000000000e+00  0.0000000000000000e+00 0.0000000000000000e+00 0.0000000000000000e+00  0.0000000000000000e+00 0.0000000000000000e+00 0.0000000000000000e+00  0.0000000000000000e+00 0.0000000000000000e+00 0.0000000000000000e+00  0.0000000000000000e+00 0.0000000000000000e+00 0.0000000000000000e+00  0.0000000000000000e+00 0.0000000000000000e+00 0.0000000000000000e+00  0.0000000000000000e+00 0.0000000000000000e+00 0.0000000000000000e+00  0.0000000000000000e+00 0.0000000000000000e+00 0.0000000000000000e+00  -1.2733385429058823e-03 1.2755663432282161e-03 0.0000000000000000e+00  -2.0027034219397832e-03 2.1345174076723840e-03 0.0000000000000000e+00  -2.5486547700753238e-03 2.7921422876135871e-03 0.0000000000000000e+00  -2.9728096224317813e-03 3.3306941102110884e-03 0.0000000000000000e+00  -3.2937317203866321e-03 3.8158099749943291e-03 0.0000000000000000e+00  -3.5417322058410449e-03 4.2315548280095136e-03 0.0000000000000000e+00  -3.7306046950077295e-03 4.5824702285858498e-03 0.0000000000000000e+00  -3.8793244701998998e-03 4.8681240330148605e-03 0.0000000000000000e+00  -3.9683326659309889e-03 5.1058271383214032e-03 0.0000000000000000e+00  -4.0209099894788977e-03 5.2698283114788226e-03 0.0000000000000000e+00  -4.0048284504897221e-03 5.3866328466223622e-03 0.0000000000000000e+00  -3.8122928425114336e-03 5.5920745079692585e-03 0.0000000000000000e+00  -3.6932712401535803e-03 5.8529725055452182e-03 0.0000000000000000e+00  -3.5588540241285379e-03 6.1927660233270709e-03 0.0000000000000000e+00  -3.4288380370776231e-03 6.5946832025381629e-03 0.0000000000000000e+00  -3.3069013666471138e-03 7.0470657424969120e-03 0.0000000000000000e+00  -3.1967911275222515e-03 7.5451328710488888e-03 0.0000000000000000e+00  -3.0910192068435843e-03 8.0853952618617810e-03 0.0000000000000000e+00  -3.0038067089615617e-03 8.6549448918309818e-03 0.0000000000000000e+00  -2.9224322262002360e-03 9.2567441533909431e-03 0.0000000000000000e+00  -2.8541677177653080e-03 9.8783143918395322e-03 0.0000000000000000e+00  -2.7949907437870105e-03 1.0520986265244479e-02 0.0000000000000000e+00  -2.7462620413640933e-03 1.1182905184055861e-02 0.0000000000000000e+00  -2.7018997221276951e-03 1.1866037677657842e-02 0.0000000000000000e+00  -2.6746437757737438e-03 1.2553051108090124e-02 0.0000000000000000e+00  -2.6537257417798858e-03 1.3261290040563079e-02 0.0000000000000000e+00  -2.6445185711942757e-03 1.3976432444473105e-02 0.0000000000000000e+00  -2.6367558927701566e-03 1.4697027322235871e-02 0.0000000000000000e+00  -2.6401881191697300e-03 1.5422198619169675e-02 0.0000000000000000e+00  -2.6357528558576234e-03 1.6160273151996609e-02 0.0000000000000000e+00  -2.6485832664074498e-03 1.6896663774142281e-02 0.0000000000000000e+00  -2.6591021485432064e-03 1.7644137158805646e-02 0.0000000000000000e+00  -2.6787798609840068e-03 1.8387575513963524e-02 0.0000000000000000e+00  -2.6922080895372194e-03 1.9140267686132535e-02 0.0000000000000000e+00  -2.7103650104768344e-03 1.9888978355766206e-02 0.0000000000000000e+00  -2.7312887754129943e-03 2.0642020107553016e-02 0.0000000000000000e+00  -2.7488451962141948e-03 2.1402129310504947e-02 0.0000000000000000e+00  -2.7722659073408859e-03 2.2154889292646657e-02 0.0000000000000000e+00  -2.7969266500757683e-03 2.2910435713264846e-02 0.0000000000000000e+00  -2.8143247554438442e-03 2.3669264901675511e-02 0.0000000000000000e+00  -2.8354729180721104e-03 2.4422903172246511e-02 0.0000000000000000e+00  -2.8527534803416501e-03 2.5180648195330807e-02 0.0000000000000000e+00  -2.8775537599724393e-03 2.5932836394943756e-02 0.0000000000000000e+00  -2.8952186963101837e-03 2.6684499669950516e-02 0.0000000000000000e+00  -2.9148233408122642e-03 2.7433246648227848e-02 0.0000000000000000e+00  -2.9282973978394700e-03 2.8181420393554729e-02 0.0000000000000000e+00  -2.9440443424808408e-03 2.8923349656582123e-02 0.0000000000000000e+00  -2.9563848590685323e-03 2.9665309030273104e-02 0.0000000000000000e+00  -2.9748118090164701e-03 3.0399800603429235e-02 0.0000000000000000e+00  -2.9874682425701069e-03 3.1130047637127664e-02 0.0000000000000000e+00  -3.0017405216754599e-03 3.1854619182321742e-02 0.0000000000000000e+00  -3.0119947516835544e-03 3.2575923791540902e-02 0.0000000000000000e+00  -3.0201830582686192e-03 3.3289075934688765e-02 0.0000000000000000e+00  -3.0332656558405622e-03 3.3992831266139743e-02 0.0000000000000000e+00  -3.0423801555514228e-03 3.4694454726130919e-02 0.0000000000000000e+00  -3.0508671895875575e-03 3.5384407962666412e-02 0.0000000000000000e+00  -3.0611168479034436e-03 3.6067120753153985e-02 0.0000000000000000e+00  -3.0682881904263611e-03 3.6745403032615809e-02 0.0000000000000000e+00  -3.0734059489675278e-03 3.7411012607996348e-02 0.0000000000000000e+00  -3.0812209368856255e-03 3.8068194677768744e-02 0.0000000000000000e+00  -3.0869656310973299e-03 3.8719975535378308e-02 0.0000000000000000e+00  -3.0922356710450564e-03 3.9357589497826952e-02 0.0000000000000000e+00  -3.0972015514893871e-03 3.9987900689621263e-02 0.0000000000000000e+00  -3.1007328569870149e-03 4.0610525387789004e-02 0.0000000000000000e+00  -3.1053433605764749e-03 4.1219224654333218e-02 0.0000000000000000e+00  -3.1088885937138786e-03 4.1821439661863309e-02 0.0000000000000000e+00  -3.1126546096234106e-03 4.2410670174683848e-02 0.0000000000000000e+00  -3.1164929155319859e-03 4.2990111767751568e-02 0.0000000000000000e+00  -3.1194699079021533e-03 4.3557681185794138e-02 0.0000000000000000e+00  -3.1211117876138762e-03 4.4116530080770482e-02 0.0000000000000000e+00  -3.1239212781670363e-03 4.4664649693947581e-02 0.0000000000000000e+00  -3.1256181401697974e-03 4.5203446461335124e-02 0.0000000000000000e+00  -3.1268624811563814e-03 4.5730771528850106e-02 0.0000000000000000e+00  -3.1287798544932716e-03 4.6246188523942508e-02 0.0000000000000000e+00  -3.1304175523054322e-03 4.6751454479634171e-02 0.0000000000000000e+00  -3.1310854331668080e-03 4.7248439235298353e-02 0.0000000000000000e+00  -3.1316088202525193e-03 4.7732590062482420e-02 0.0000000000000000e+00  -3.1327499631563613e-03 4.8207494414966523e-02 0.0000000000000000e+00  -3.1330905881448864e-03 4.8673138396712154e-02 0.0000000000000000e+00  -3.1334977217428294e-03 4.9127280297968708e-02 0.0000000000000000e+00  -3.1334737712416382e-03 4.9571799829172959e-02 0.0000000000000000e+00  -3.1336766398547943e-03 5.0449585141917136e-02 0.0000000000000000e+00  -3.1334535258116789e-03 5.0914685436935968e-02 0.0000000000000000e+00  -3.1331772962651613e-03 5.1405388324098682e-02 0.0000000000000000e+00  -3.1317700913426473e-03 5.1920277250425931e-02 0.0000000000000000e+00  -3.1312291445749099e-03 5.2461169582445802e-02 0.0000000000000000e+00  -3.1313281863452969e-03 5.3031621393830018e-02 0.0000000000000000e+00  -3.1289445465785990e-03 5.3628822675218936e-02 0.0000000000000000e+00  -3.1267330254481302e-03 5.4255246138256059e-02 0.0000000000000000e+00  -3.1243059097915671e-03 5.4914101469143752e-02 0.0000000000000000e+00  -3.1220905748512019e-03 5.5604826695335847e-02 0.0000000000000000e+00  -3.1191179702149113e-03 5.6329706141657838e-02 0.0000000000000000e+00  -3.1154386583175067e-03 5.7087115042343560e-02 0.0000000000000000e+00  -3.1107155521185492e-03 5.7879531962286047e-02 0.0000000000000000e+00  -3.1050580637543520e-03 5.8706173399083503e-02 0.0000000000000000e+00  -3.1014085810802620e-03 5.9572562655092448e-02 0.0000000000000000e+00  -3.0916002722804021e-03 6.0471677130231882e-02 0.0000000000000000e+00  -3.0884573332093600e-03 6.1412675899206938e-02 0.0000000000000000e+00  -3.0743861398279311e-03 6.2384943369953365e-02 0.0000000000000000e+00  -3.0652684695694310e-03 6.3402275828980129e-02 0.0000000000000000e+00  -3.0523684918243288e-03 6.4451191762081847e-02 0.0000000000000000e+00  -3.0376271905296300e-03 6.5538155506690052e-02 0.0000000000000000e+00  -3.0206106318353665e-03 6.6659572160181563e-02 0.0000000000000000e+00  -3.0057168298935543e-03 6.7815557270629406e-02 0.0000000000000000e+00  -2.9863722296664440e-03 6.8998934725244640e-02 0.0000000000000000e+00  -2.9616998390616074e-03 7.0215037041232095e-02 0.0000000000000000e+00  -2.9347970628393234e-03 7.1460372459092467e-02 0.0000000000000000e+00  -2.9033289671082790e-03 7.2737887545226490e-02 0.0000000000000000e+00  -2.8777481338909611e-03 7.4039785619347792e-02 0.0000000000000000e+00  -2.8376658288487766e-03 7.5356472792528079e-02 0.0000000000000000e+00  -2.8105367209360086e-03 7.6695990981785450e-02 0.0000000000000000e+00  -2.7691870147901329e-03 7.8053274243091414e-02 0.0000000000000000e+00  -2.7244549254387190e-03 7.9411338669193601e-02 0.0000000000000000e+00  -2.6925665321786206e-03 8.0782495062012183e-02 0.0000000000000000e+00  -2.6567031550674795e-03 8.2159717580685715e-02 0.0000000000000000e+00  -2.6485458210176787e-03 8.3549570211223098e-02 0.0000000000000000e+00  -2.6379426372343429e-03 8.4910629420800965e-02 0.0000000000000000e+00  -2.6445002361353311e-03 8.6284407679116631e-02 0.0000000000000000e+00  -2.7033137084304867e-03 8.7619410246534135e-02 0.0000000000000000e+00  -2.7578430240313631e-03 8.8914048785387362e-02 0.0000000000000000e+00  -2.8758678729242392e-03 9.0198625240062738e-02 0.0000000000000000e+00  -2.9977515536243750e-03 9.1360875937754701e-02 0.0000000000000000e+00  -3.2075673628188905e-03 9.2463046706696111e-02 0.0000000000000000e+00  -3.4327395088563357e-03 9.3404852866975155e-02 0.0000000000000000e+00  -3.6816423110548318e-03 9.4145157517144959e-02 0.0000000000000000e+00  -4.0201580818889880e-03 9.4726761412723487e-02 0.0000000000000000e+00  -3.9355157816352423e-03 9.4991521919990066e-02 0.0000000000000000e+00  -3.7768729990441444e-03 9.5362714702882559e-02 0.0000000000000000e+00  -3.5544448167480901e-03 9.5770858143616744e-02 0.0000000000000000e+00  -3.2969126017462812e-03 9.6205027742115146e-02 0.0000000000000000e+00  -2.9883904001578288e-03 9.6646069859359487e-02 0.0000000000000000e+00  -2.6573717334305879e-03 9.7107176882337415e-02 0.0000000000000000e+00  -2.2675452182553697e-03 9.7569496540519204e-02 0.0000000000000000e+00  -1.8484508426539019e-03 9.8055260211792214e-02 0.0000000000000000e+00  -1.3527549727771514e-03 9.8588183971985544e-02 0.0000000000000000e+00  -8.0991691659043402e-04 9.9196036370449645e-02 0.0000000000000000e+00  0.0000000000000000e+00 1.0000000000000002e-01 0.0000000000000000e+00  0.0000000000000000e+00 1.0000000000000002e-01 0.0000000000000000e+00  0.0000000000000000e+00 1.0000000000000001e-01 0.0000000000000000e+00  0.0000000000000000e+00 1.0000000000000002e-01 0.0000000000000000e+00  0.0000000000000000e+00 1.0000000000000001e-01 0.0000000000000000e+00  0.0000000000000000e+00 1.0000000000000001e-01 0.0000000000000000e+00  0.0000000000000000e+00 1.0000000000000001e-01 0.0000000000000000e+00  0.0000000000000000e+00 1.0000000000000001e-01 0.0000000000000000e+00  0.0000000000000000e+00 1.0000000000000001e-01 0.0000000000000000e+00  0.0000000000000000e+00 1.0000000000000001e-01 0.0000000000000000e+00  0.0000000000000000e+00 1.0000000000000001e-01 0.0000000000000000e+00  0.0000000000000000e+00 9.9187917079240878e-02 0.0000000000000000e+00  0.0000000000000000e+00 9.8337524105708424e-02 0.0000000000000000e+00  0.0000000000000000e+00 9.7432007887806926e-02 0.0000000000000000e+00  0.0000000000000000e+00 9.6490064919416099e-02 0.0000000000000000e+00  0.0000000000000000e+00 9.5520582862582762e-02 0.0000000000000000e+00  0.0000000000000000e+00 9.4534324184035193e-02 0.0000000000000000e+00  0.0000000000000000e+00 9.3537600386866995e-02 0.0000000000000000e+00  0.0000000000000000e+00 9.2534512488843645e-02 0.0000000000000000e+00  0.0000000000000000e+00 9.1531652322066032e-02 0.0000000000000000e+00  0.0000000000000000e+00 9.0531056596339060e-02 0.0000000000000000e+00  0.0000000000000000e+00 8.9543843331426412e-02 0.0000000000000000e+00  0.0000000000000000e+00 8.8563165335462893e-02 0.0000000000000000e+00  0.0000000000000000e+00 8.7590642840374683e-02 0.0000000000000000e+00  0.0000000000000000e+00 8.6625603021787664e-02 0.0000000000000000e+00  0.0000000000000000e+00 8.5669332323511635e-02 0.0000000000000000e+00  0.0000000000000000e+00 8.4717529559833624e-02 0.0000000000000000e+00  0.0000000000000000e+00 8.3773050078813027e-02 0.0000000000000000e+00  0.0000000000000000e+00 8.2827201276788290e-02 0.0000000000000000e+00  0.0000000000000000e+00 8.1880563394681125e-02 0.0000000000000000e+00  0.0000000000000000e+00 8.0944936259379249e-02 0.0000000000000000e+00  0.0000000000000000e+00 8.0005009956871390e-02 0.0000000000000000e+00  0.0000000000000000e+00 7.9060790436743578e-02 0.0000000000000000e+00  0.0000000000000000e+00 7.8114532027367303e-02 0.0000000000000000e+00  0.0000000000000000e+00 7.7169637472357680e-02 0.0000000000000000e+00  0.0000000000000000e+00 7.6225284985270814e-02 0.0000000000000000e+00  0.0000000000000000e+00 7.5282121376758340e-02 0.0000000000000000e+00  0.0000000000000000e+00 7.4340281164452585e-02 0.0000000000000000e+00  0.0000000000000000e+00 7.3399475320711186e-02 0.0000000000000000e+00  0.0000000000000000e+00 7.2461757534413015e-02 0.0000000000000000e+00  0.0000000000000000e+00 7.1529060110577802e-02 0.0000000000000000e+00  0.0000000000000000e+00 7.0604887758435500e-02 0.0000000000000000e+00  0.0000000000000000e+00 6.9688690902370815e-02 0.0000000000000000e+00  0.0000000000000000e+00 6.8783701695212363e-02 0.0000000000000000e+00  0.0000000000000000e+00 6.7890658265459675e-02 0.0000000000000000e+00  0.0000000000000000e+00 6.7009680579881506e-02 0.0000000000000000e+00  0.0000000000000000e+00 6.6143145744696430e-02 0.0000000000000000e+00  0.0000000000000000e+00 6.5291447346887896e-02 0.0000000000000000e+00  0.0000000000000000e+00 6.4452889591599422e-02 0.0000000000000000e+00  0.0000000000000000e+00 6.3635267032312759e-02 0.0000000000000000e+00  0.0000000000000000e+00 6.2833907796980365e-02 0.0000000000000000e+00  0.0000000000000000e+00 6.2050781702464919e-02 0.0000000000000000e+00  0.0000000000000000e+00 6.1286561387819356e-02 0.0000000000000000e+00  0.0000000000000000e+00 6.0541912452328060e-02 0.0000000000000000e+00  0.0000000000000000e+00 5.9816364602929169e-02 0.0000000000000000e+00  0.0000000000000000e+00 5.9110466927808254e-02 0.0000000000000000e+00  0.0000000000000000e+00 5.8424516930671702e-02 0.0000000000000000e+00  0.0000000000000000e+00 5.7758578913679831e-02 0.0000000000000000e+00  0.0000000000000000e+00 5.7112610521215738e-02 0.0000000000000000e+00  0.0000000000000000e+00 5.6486182323220571e-02 0.0000000000000000e+00  0.0000000000000000e+00 5.5879162124409347e-02 0.0000000000000000e+00  0.0000000000000000e+00 5.5291641202157849e-02 0.0000000000000000e+00  0.0000000000000000e+00 5.4723029378924926e-02 0.0000000000000000e+00  0.0000000000000000e+00 5.4173324987217636e-02 0.0000000000000000e+00  0.0000000000000000e+00 5.3641978318663255e-02 0.0000000000000000e+00  0.0000000000000000e+00 5.3128717198205312e-02 0.0000000000000000e+00  0.0000000000000000e+00 5.2633087849241006e-02 0.0000000000000000e+00  0.0000000000000000e+00 5.2154835332725226e-02 0.0000000000000000e+00  0.0000000000000000e+00 5.1693331375217026e-02 0.0000000000000000e+00  0.0000000000000000e+00 5.1248172301464841e-02 0.0000000000000000e+00  0.0000000000000000e+00 5.0818972155727608e-02 0.0000000000000000e+00  0.0000000000000000e+00 5.0405227841431671e-02 0.0000000000000000e+00  0.0000000000000000e+00 4.9607759201676281e-02 0.0000000000000000e+00  0.0000000000000000e+00 4.9193989677955519e-02 0.0000000000000000e+00  0.0000000000000000e+00 4.8764777589596395e-02 0.0000000000000000e+00  0.0000000000000000e+00 4.8319683321322165e-02 0.0000000000000000e+00  0.0000000000000000e+00 4.7858212594754736e-02 0.0000000000000000e+00  0.0000000000000000e+00 4.7380010097793725e-02 0.0000000000000000e+00  0.0000000000000000e+00 4.6884300250764198e-02 0.0000000000000000e+00  0.0000000000000000e+00 4.6371036775324656e-02 0.0000000000000000e+00  0.0000000000000000e+00 4.5839711621913699e-02 0.0000000000000000e+00  0.0000000000000000e+00 4.5289877909196495e-02 0.0000000000000000e+00  0.0000000000000000e+00 4.4721315960493134e-02 0.0000000000000000e+00  0.0000000000000000e+00 4.4133980775751598e-02 0.0000000000000000e+00  0.0000000000000000e+00 4.3526919811031455e-02 0.0000000000000000e+00  0.0000000000000000e+00 4.2900029502954636e-02 0.0000000000000000e+00  0.0000000000000000e+00 4.2253771934962284e-02 0.0000000000000000e+00  0.0000000000000000e+00 4.1587836849683472e-02 0.0000000000000000e+00  0.0000000000000000e+00 4.0901811838844129e-02 0.0000000000000000e+00  0.0000000000000000e+00 4.0195427924658460e-02 0.0000000000000000e+00  0.0000000000000000e+00 3.9469286774669904e-02 0.0000000000000000e+00  0.0000000000000000e+00 3.8723685134803475e-02 0.0000000000000000e+00  0.0000000000000000e+00 3.7959276545577757e-02 0.0000000000000000e+00  0.0000000000000000e+00 3.7176075425311733e-02 0.0000000000000000e+00  0.0000000000000000e+00 3.6373766133986754e-02 0.0000000000000000e+00  0.0000000000000000e+00 3.5554484918503847e-02 0.0000000000000000e+00  0.0000000000000000e+00 3.4720090021491200e-02 0.0000000000000000e+00  0.0000000000000000e+00 3.3866946890916717e-02 0.0000000000000000e+00  0.0000000000000000e+00 3.2999693176337899e-02 0.0000000000000000e+00  0.0000000000000000e+00 3.2117726195997218e-02 0.0000000000000000e+00  0.0000000000000000e+00 3.1222822897056281e-02 0.0000000000000000e+00  0.0000000000000000e+00 3.0320794809469847e-02 0.0000000000000000e+00  0.0000000000000000e+00 2.9402323487170583e-02 0.0000000000000000e+00  0.0000000000000000e+00 2.8477432612274652e-02 0.0000000000000000e+00  0.0000000000000000e+00 2.7546373378030061e-02 0.0000000000000000e+00  0.0000000000000000e+00 2.6607413186306883e-02 0.0000000000000000e+00  0.0000000000000000e+00 2.5665798478055109e-02 0.0000000000000000e+00  0.0000000000000000e+00 2.4721978324278925e-02 0.0000000000000000e+00  0.0000000000000000e+00 2.3775504832914827e-02 0.0000000000000000e+00  0.0000000000000000e+00 2.2832719006878294e-02 0.0000000000000000e+00  0.0000000000000000e+00 2.1886090545114478e-02 0.0000000000000000e+00  0.0000000000000000e+00 2.0940482718293716e-02 0.0000000000000000e+00  0.0000000000000000e+00 1.9995036560937970e-02 0.0000000000000000e+00  0.0000000000000000e+00 1.9053827021366019e-02 0.0000000000000000e+00  0.0000000000000000e+00 1.8113666694376741e-02 0.0000000000000000e+00  0.0000000000000000e+00 1.7171711974481644e-02 0.0000000000000000e+00  0.0000000000000000e+00 1.6227508990038008e-02 0.0000000000000000e+00  0.0000000000000000e+00 1.5282274768144836e-02 0.0000000000000000e+00  0.0000000000000000e+00 1.4331357643523716e-02 0.0000000000000000e+00  0.0000000000000000e+00 1.3374551474612736e-02 0.0000000000000000e+00  0.0000000000000000e+00 1.2412601959631809e-02 0.0000000000000000e+00  0.0000000000000000e+00 1.1434008242831325e-02 0.0000000000000000e+00  0.0000000000000000e+00 1.0450385144444780e-02 0.0000000000000000e+00  0.0000000000000000e+00 9.4600884677011471e-03 0.0000000000000000e+00  0.0000000000000000e+00 8.4610928863942357e-03 0.0000000000000000e+00  0.0000000000000000e+00 7.4583259574764480e-03 0.0000000000000000e+00  0.0000000000000000e+00 6.4541888985634559e-03 0.0000000000000000e+00  0.0000000000000000e+00 5.4580579387110070e-03 0.0000000000000000e+00  0.0000000000000000e+00 4.4730168691324386e-03 0.0000000000000000e+00  0.0000000000000000e+00 3.5002551767960503e-03 0.0000000000000000e+00  0.0000000000000000e+00 2.5693836364940794e-03 0.0000000000000000e+00  0.000000000