<?xml version="1.0"?>
<VTKFile type="UnstructuredGrid"  version="0.1"  >
<UnstructuredGrid>
<Piece  NumberOfPoints="2548" NumberOfCells="4801">
<Points>
<DataArray  type="Float64"  NumberOfComponents="3"  format="ascii">0 1 0  0 0 0  2 0 0  2 1 0  1 0 0  1 1 0  0.5 0 0  0.5 1 0  0 0.5 0  2 0.5 0  1.5 1 0  1.5 0 0  0.75 0.5 0  1.5 0.5 0  0.375 0.375 0  1.125 0.625 0  0.28125 0.71875 0  2 0.25 0  1.75 0 0  2 0.75 0  1.75 1 0  1.25 0 0  1.017857142857143 0.3214285714285714 0  0.75 0 0  1.708333333333333 0.2916666666666667 0  0.5679347826086957 0.7214673913043479 0  0.875 0.75 0  1.305600649350649 0.2846996753246753 0  1.75 0.625 0  0.625 0.25 0  1.25 1 0  1.375 0.75 0  0.25 0 0  0 0.25 0  0 0.75 0  0.25 1 0  0.75 1 0  1.598214285714286 0.7946428571428572 0  0.875 0.1681547619047619 0  1.508244264625336 0.2143493347914263 0  0.537924619652453 0.5112261410426409 0  1.125 0.154265873015873 0  0.21875 0.21875 0  1.1875 0.8125 0  0.1796875 0.4140625 0  0.4375 0.1875 0  1.289794950204951 0.4943848506148524 0  0.9375 0.5625 0  1.8125 0.8125 0  1.869047619047619 0.375 0  0.306640625 0.541015625 0  0.1416015625 0.6081194196428571 0  0.375 0.8715277777777778 0  0.7878874375837291 0.3248062812081354 0  0.153125 0.846875 0  1.838541666666667 0.1614583333333334 0  1.673611111111111 0.4652777777777778 0  1.375 0 0  0.7131428669914515 0.8253214334957257 0  0.7206235893771994 0.6614203860924323 0  1.653859750753041 0.1350752024885296 0  1.171553649596502 0.3800337391363729 0  1.020833333333333 0.8333333333333334 0  0.4360525641032634 0.6330299904393442 0  1.508928571428571 0.6607142857142857 0  0.125 0 0  1.562047069667471 0.3588464594484652 0  1.066821025796166 0.4870369226115026 0  1.372434789129916 0.1501830428251819 0  1.397572001626963 0.3970706043732994 0  0.5715219737723877 0.8698933499126715 0  0.9042584128096922 0.4174908995079927 0  1.003472222222222 0.6944444444444444 0  1.272705049795049 0.6420899004099017 0  1.3125 0.875 0  0.5245753803475469 0.3616507606950939 0  0.7293202423318081 0.1459101211659041 0  1.469246031746032 0.8591269841269842 0  0.875 1 0  0.5625 0.125 0  1.85444568452381 0.5213913690476191 0  1.875 0.6875 0  0 0.125 0  1.392655346118954 0.5811272954775059 0  0.6619703121556711 0.3842420574783494 0  1.125 1 0  0.375 0 0  0.3167613636363636 0.1235795454545455 0  2 0.875 0  1.875 1 0  1.605229591836735 0.5747590702947846 0  1.699083011583012 0.8788610038610039 0  0.9982225529100529 0.1292162698412699 0  1.375 1 0  0.625 1 0  1.625 0 0  1.875 0 0  0.625 0 0  0.375 1 0  0 0.625 0  2 0.375 0  0 0.375 0  1.125 0 0  0.875 0 0  0.125 1 0  0 0.875 0  2 0.125 0  0.8347154254703812 0.875 0  2 0.625 0  1.625 1 0  1.249055982776079 0.1727441706461531 0  0.4001949725348535 0.7509141330152288 0  0.1076766304347826 0.3125 0  0.1206266972802661 0.7287876397828053 0  0.839045334706977 0.6338484449023256 0  0.1026785714285714 0.1875 0  0.1875 0.1025191326530612 0  0.647087651085914 0.56465454646987 0  0.4175806492347585 0.4896150099790182 0  1.124723442875088 0.272006546354114 0  0.9025364992112173 0.3002552609864784 0  1.710459183673469 0.7423469387755102 0  0.2611111111111111 0.8857638888888889 0  1.177286695349859 0.521702157920197 0  0.3359375 0.2578125 0  0.267578125 0.345703125 0  1.107291666666667 0.7350694444444444 0  1.615946089418426 0.6860954641972395 0  1.819940476190476 0.2730654761904763 0  1.75830270586982 0.3919383189517417 0  1.60542025246854 0.2604314953837324 0  1.47529437030095 0.1082834354672917 0  1.407616811984598 0.2515245892897627 0  0.5417644749872034 0.6179405079134659 0  1.292605834233751 0.3891584395767265 0  1.571560171687723 0.9025449465500486 0  0.4948260752512502 0.7974906259153529 0  0.9397899849485198 0.9078383314518984 0  0.8133000292679321 0.08407738095238092 0  1.476686507936508 0.7574404761904762 0  0.1110425383368033 0.5013559892496797 0  0.2112130102898548 0.5094901147101452 0  0.29931640625 0.44091796875 0  1.1875 0.07713293650793651 0  0.4106128246753247 0.0922957251082251 0  1.90625 0.78125 0  1.890625 0.890625 0  0.53125 0.21875 0  0.43359375 0.2903645833333333 0  1.21875 0.90625 0  1.111378205128205 0.8926282051282051 0  1.269897475102475 0.7471924253074262 0  1.029513888888889 0.5989583333333333 0  0.8522579878681762 0.5057260363954713 0  0.4735106227127113 0.9007265262494941 0  0.9590087510503688 0.2195632990669812 0  0.6875 0.9219597779820848 0  1.297061602521838 0.08663184834406668 0  0.8057486862661835 0.4203625921047867 0  1.793269447512567 0.9105428610875859 0  1.192060400311378 0.6922481068149043 0  1.754252759835165 0.5248380520595106 0  0.09102701677793967 0.09104872753828278 0  0.7253449499868028 0.2462465282608479 0  1.484694639796352 0.3053830929854885 0  1.739818341109988 0.1929433411099884 0  1.742395305945888 0.09633901341431061 0  1.5625 0.0712199154988299 0  1.92926747311828 0.1875 0  1.90752469027583 0.09218971500852076 0  1.40768629618205 0.4894347989095132 0  0.08806450569358179 0.4027157738095238 0  1.912105021337907 0.2781978201831695 0  1.213814955489757 0.2975491648102477 0  0.2318947826372472 0.7975197826372472 0  0.06766581632653063 0.8125 0  1.93452380952381 0.4375 0  0.6247824869223918 0.4719944419277 0  1.0625 0.06548008473267392 0  0.3365452571729279 0.6359685188818469 0  0.2379420733423327 0.6299633247212709 0  0.6875 0.06556243656869358 0  0.3236766744217268 0.7978685432210111 0  0.8310171284078489 0.2462432983132972 0  1.934836256037958 0.5625 0  0.9161950191268687 0.08407738095238093 0  0.6255648715181676 0.7943309019754321 0  0.7969452222935728 0.7938361597008705 0  1.049114351431065 0.2049887101224473 0  0.1836020902149457 0.931618241059888 0  1.587837819422641 0.4878002082243154 0  1.656458741565034 0.3715695260907847 0  0.9746733823051021 0.4776637837933646 0  0 0.9375 0  0.0625 1 0  0.08488520408163265 0.90625 0  0.625108507899049 0.6519433794169625 0  0.9179752099882805 0.6730563883756762 0  0.4799911838279058 0.7100598895640633 0  1.79655612244898 0.7264030612244898 0  1.028270112243967 0.4083923893159024 0  0.9066957593018397 0.8292061892030722 0  1.358770484011389 0.6629439624162315 0  1.4375 1 0  1.395391088162172 0.9116794559189138 0  1.482797859881745 0.3908170231280859 0  0.6455330629466264 0.1384632183556422 0  1.029395089402758 0.9190389695086781 0  1.836666296419157 0.607917407161686 0  0.4535978296068884 0.4110171803721298 0  0.06550603987731521 0.5721451437613042 0  0.9569373077851933 0.7631562395310373 0  1.583993153355993 0.1801147415980886 0  0.7937649993393823 0.707466203500723 0  1.824565284334692 0.07855596330344469 0  1.219218268800778 0.4490550565788002 0  1.09246753402758 0.3566001189940414 0  0.7281178214686024 0.5794009834944619 0  0.6932515372564962 0.7422923192533981 0  0.1868917396185889 0.3326442902239 0  1.381389496819767 0.8313197484098837 0  0.3251953125 0.9357638888888888 0  1.822983647514895 0.4443292349237342 0  1.522805799535004 0.579338169867103 0  0.1996769442187233 0.7035837018142242 0  0.07584180090947087 0.6588459491136841 0  1.179616205578152 0.2132648206592699 0  0.4805199872536258 0.5667179735898049 0  0.3858701449073073 0.5665964231522445 0  1.098089669722258 0.8141404887505225 0  1.687233248862278 0.572163739146816 0  1.551166608520145 0.7312353751304908 0  0.4922995523139784 0.0819752238430108 0  2 0.9375 0  0.768368512152681 0.921241957327667 0  1.247199476430077 0.5642976316950705 0  1.6875 0 0  0.6774039677538598 0.307779775489877 0  0.6000141078244342 0.3319476482371208 0  1.434261329029022 0.6895619774012085 0  1.66493947909829 0.2113935814263256 0  1.443093262894167 0.1764378413598336 0  1.402006909638446 0.07557472224679147 0  1.340345392925933 0.2181010093132612 0  0.5554578582348065 0.4342779583340344 0  1.107361224480081 0.551189700840597 0  1.138385583366683 0.4523261983614127 0  0.8533445989779486 0.3620185773637825 0  0.9515078554899268 0.3581664525345664 0  0.5386270525248704 0.9365222029658709 0  0.7385910931871089 0.3834681382026311 0  0.802177695014711 0.1569173507111856 0  1.678649386507641 0.6460608856108409 0  1.321228366282072 0.5614685347415731 0  1.41359183689185 0.3250565808516193 0  0.6954048733751652 0.4501669473459832 0  0.1485611191567167 0.2482653329281137 0  1.3469535863885 0.4493494260445651 0  1.465721499292709 0.9323462488904651 0  0.7981542850547552 0.555986631721179 0  1.538905404408536 0.8372354119916759 0  0.5402362619913743 0.2907759906818941 0  1.544445456917978 0.4294227313618058 0  1.64210730014833 0.927239663021229 0  0.6436701064529 0.8643871094205939 0  1.458142277220564 0.6101822863463986 0  0.4380500880834657 0.8395863885666418 0  0.609775472096462 0.930213850449219 0  0.2582723336415264 0.07535405277673025 0  0.2464725418959271 0.1492463151953984 0  0.3026740927503065 0.1940782140226835 0  0.6136302244057281 0.07244011220286403 0  1.037390873015873 0.760734126984127 0  1.064236111111111 0.6597222222222221 0  0.4095428818227003 0.9357638888888888 0  0.5950820785655451 0.1868339607172275 0  1.261352524897525 0.8210449502049508 0  1.28125 0.9375 0  0.5 0.15625 0  1.9375 0.71875 0  1.927210589804446 0.635671179608893 0  1.9375 1 0  1.626447537183655 0.8588601831331419 0  1.669722968375728 0.8015190092763261 0  1.741107994028916 0.8070548843809463 0  1.204001864890377 0.6215380952542296 0  1.677831627302534 0.06931873288731356 0  0.3125 0 0  1.869908299928041 0.2232403652524313 0  1.348462648995713 0.3483571605131688 0  0.3786180084120425 0.1527303780499803 0  0.3487561798996458 0.06314489251279025 0  0.2360060703178168 0.2849796364162243 0  1.612623216848136 0.4240614066492297 0  0.5625 0 0  1.44829775698497 0.5431703903381939 0  0.6734193446913824 0.2012552484100826 0  1.321327673059477 0.790563647738753 0  0.9661399202258864 0.6245602277896942 0  1.807323292851816 0.3419398170341963 0  0.9999257554414013 0.5392912151029183 0  1.741351399185104 0.457933324954483 0  1.1875 1 0  1.939453125 0.841796875 0  0.8125 1 0  1.15625 0.9414854812476081 0  1.6875 1 0  1.732215719876833 0.9362048860500158 0  0.3490171788168188 0.7041577754578493 0  0.87486661
[...]
<PointData  Scalars="f_639"> 
<DataArray  type="Float64"  Name="f_639"  format="ascii">0.0000000000000000e+00  0.0000000000000000e+00  1.0000000000000000e+00  1.0000000000000000e+00  1.5392543141720496e-44  2.1359007997252562e-44  2.6303873346778392e-66  3.4629050356697066e-66  0.0000000000000000e+00  1.0000000000000000e+00  1.3186927722451376e-22  1.5366436094347482e-22  1.8842884262954094e-55  2.7295082434298179e-22  1.0126760837143802e-71  -1.3022244819408095e-39  1.0854057731006785e-75  1.0000000000000000e+00  1.1289252043006649e-11  1.0000000000000000e+00  1.2055298856429097e-11  1.4476592213058757e-33  4.2461720116552503e-44  2.3285267611065282e-55  1.4747379131443933e-13  3.6196481715433021e-63  3.9144925478985300e-50  4.1832848365329271e-31  2.1616939906717162e-11  9.2740196193720418e-61  1.6542984688759557e-33  1.5575514967281040e-29  3.5717915028771063e-77  0.0000000000000000e+00  0.0000000000000000e+00  4.4792296086794315e-77  2.7497631996840777e-55  1.4242950956655902e-18  6.1736897814982358e-50  3.3722795588062894e-22  8.4885797858219146e-65  5.5895811233541574e-39  1.9708316401694260e-78  1.0327610620086413e-36  2.2308370149823201e-80  4.8613268819737930e-69  5.8814206511065292e-32  1.5791086365701350e-47  5.4473527316662033e-09  7.6559233154420348e-07  -3.4085418729777476e-75  5.8104675333584278e-82  1.0304432367660238e-71  1.0868039396067035e-53  2.8867903030174304e-81  8.3475286436155730e-08  4.1802393836160007e-15  5.0186642641502307e-28  8.4149580659920153e-57  1.1061835843648630e-56  7.1589542117883488e-16  5.5928376603121025e-37  1.9038559984894622e-43  4.1314661536706107e-69  3.3533524827285530e-22  1.1634875124612309e-82  6.5171045715933279e-20  1.3975594181977509e-41  3.3077413018871162e-28  -2.5615307635033619e-27  -1.5842984159163697e-63  9.8806139866419720e-49  2.7421044798869251e-44  1.3316586808963980e-32  3.7116611327531638e-31  2.9266973165382850e-65  1.1271228247393551e-56  6.8001674889427394e-24  7.3649715678296603e-50  1.2575373872979724e-63  1.5061670015882612e-07  1.1931456270762413e-06  0.0000000000000000e+00  2.5831227645160337e-27  -1.2602274180870398e-59  5.7613812616839454e-39  9.2267528854020907e-72  2.2981811175772892e-74  1.0000000000000000e+00  3.7140580840199037e-06  2.7123041542955375e-18  5.8078549837764696e-14  1.2574432273028856e-44  5.4262401308864635e-28  8.5997001369295690e-61  3.6225542811606258e-17  3.3727874385501836e-06  8.2305969916524349e-61  1.1695630235908708e-71  0.0000000000000000e+00  1.0000000000000000e+00  0.0000000000000000e+00  6.0401613445720459e-39  7.0846847247755413e-50  1.3833098756680406e-82  0.0000000000000000e+00  1.0000000000000000e+00  1.1499008887865260e-51  1.0000000000000000e+00  4.3458304546332705e-17  1.3171454130282508e-33  2.5529215186792683e-70  1.2980984659719517e-83  1.6588357220780454e-82  5.1551648586239374e-52  9.1099472101458263e-84  6.8411705495016754e-80  6.7867631908815945e-60  4.8161067086062438e-70  5.9605662557826538e-39  1.0868667912989373e-48  1.3154860823059048e-13  7.0287974607377510e-77  9.2530710237607089e-37  1.2460486002386690e-73  2.0089011236973902e-76  8.5205095610191992e-40  1.3264483914817668e-17  1.0316404506249720e-08  2.6159443264581359e-11  5.8004373002539690e-18  9.5731560732873089e-24  1.3153576484973986e-26  1.6824346833610560e-64  9.2241065514471337e-32  1.6361292971454730e-19  1.8556089356767372e-66  6.8113592361107151e-47  1.1918011884003666e-52  1.0046948376415744e-23  1.4438165047993242e-83  4.4737412454731978e-79  3.6805863314596060e-75  2.5620049528174845e-36  3.3954988890678634e-70  7.5050884793615268e-05  1.4797704832953069e-05  6.1345495763717263e-65  3.7671869212644130e-69  8.0752852316704593e-35  1.7625880212605958e-39  9.4332318444352492e-33  2.9426558796604711e-43  5.8689926033969346e-51  2.5597702402813162e-67  3.1568188893974042e-46  5.8443174264394340e-58  1.5147251340782599e-31  3.9996075130635796e-53  7.5303943715534594e-10  4.6718745377273914e-36  1.5921411640429534e-11  4.2401125399453654e-84  2.6639380235433183e-56  2.5376823232647728e-23  3.6596692078703721e-12  6.3784658540591179e-12  6.9755611880769274e-20  6.8118976073759825e-04  8.7615745496598529e-05  9.3049492865726362e-27  2.8718714680001772e-84  1.4673646603745341e-04  7.7570041186423016e-35  7.9791445232818803e-78  4.6779463992004334e-85  1.3181553428664458e-03  4.8120319960816176e-61  9.5515056453303407e-42  1.9654238221787873e-73  9.9798022889952615e-78  4.0616636199995800e-58  7.9580782443160303e-74  8.2101271121917842e-52  1.3827137427443886e-03  3.7538791112898579e-48  9.0239768504237569e-61  3.2476226271943673e-53  2.7248766174523241e-42  5.1731358740004670e-80  9.0900415915860265e-19  8.7185832096498380e-16  1.0252186553633841e-45  0.0000000000000000e+00  2.4665952777160960e-85  2.1966303967347797e-84  6.8444715590741890e-61  4.5839266957570760e-48  4.9828639150323058e-67  1.0620585894145336e-09  3.0368803886921488e-43  1.6773289479258679e-48  9.7018096123625833e-29  2.6162976237040170e-25  9.0494393390846310e-28  2.2541671077314371e-23  1.2381822042160568e-60  5.3023946127644920e-43  7.1836890783695736e-08  2.6887794717437369e-68  2.4992337586673703e-85  -4.9104239647715687e-47  6.6351796856284305e-19  1.6802830817647089e-53  2.0302209895629629e-08  3.5108404559577252e-35  2.1105532008831339e-40  1.6453400333241292e-56  8.2462067380653181e-58  2.7923906844056323e-80  7.7977923718923391e-28  7.6682739746782127e-74  1.7333973952549618e-08  9.7595554344260651e-22  1.1357361424093153e-78  8.1674200308081840e-85  5.6593822105990312e-37  3.0710667687011536e-67  2.3864033202891650e-71  4.1942454692295904e-40  -2.2424065019198076e-14  6.5304365435555653e-20  1.4608885725318023e-66  1.0000000000000000e+00  1.9128938787880640e-54  7.1473075542013027e-34  2.3110136290944880e-14  1.7842465064706365e-58  2.5979129896443312e-62  1.6720438084082036e-25  2.0191408154283958e-15  3.7197347122189109e-25  4.4634432059338229e-27  1.4057998376855942e-29  5.2290345421930945e-64  7.9119332018841554e-40  1.1655698510627888e-38  1.4326814888850668e-50  1.3418468886617343e-46  8.1921286333048774e-65  -1.5256642851187177e-56  3.2701704916181885e-53  4.0428429556783891e-15  1.7594176197300316e-30  2.0737656904816272e-26  8.0794711411435842e-58  8.8127884371952458e-82  1.2455362644741395e-29  3.3372454106225191e-24  8.0938925082674451e-54  1.3584069569272067e-22  1.5986494818765818e-64  6.7665747893853289e-21  4.2780764417538381e-17  4.4289747404866286e-60  1.4634969310845598e-24  4.6525022991862717e-69  2.0193159305080511e-61  1.4071671561607448e-77  3.5803206536093703e-77  7.1362390371503303e-75  1.0284678417467791e-61  5.5826004797803402e-43  7.0611908775829821e-42  4.2530007483463330e-70  3.0206657419618779e-62  5.6476727425510982e-33  4.0806439791046517e-32  2.5859253252384036e-66  1.6827372783547562e-03  3.5345984113298003e-04  1.7790538945946933e-03  1.5854304618448767e-17  3.0428009582000919e-15  4.7021661569981440e-12  1.4481977966786811e-35  8.7197518324200535e-15  1.7651800311148042e-74  1.4452416269557712e-06  2.7559055119298284e-29  1.0651349512478165e-71  5.3177884617925277e-73  8.0165372930898849e-78  1.1271736116358928e-18  1.3409705479173425e-63  7.3899774639508507e-25  9.7274479835081548e-59  1.8749594704741981e-30  1.1049381615185442e-46  3.4315327548049479e-09  1.6934999846633081e-44  4.5402527693487644e-12  3.0912771963282864e-36  2.0480991341064020e-03  1.3371533662966885e-52  9.9502700878124845e-38  2.0119378452331176e-14  1.0123844798418150e-12  9.2612561883598282e-73  7.9693834375868048e-50  3.5074646465188962e-54  0.0000000000000000e+00  2.7597209148508771e-67  1.2597884864372850e-03  7.9738145364570566e-81  1.2054203873062659e-63  5.1010078859470384e-49  1.9127045932170027e-03  1.0000000000000000e+00  4.2193341257743497e-21  5.6826514875805723e-34  1.2577115204299950e-44  8.7774631661143335e-42  2.2646939069918048e-47  1.2585580771424659e-19  2.4318169444664097e-16  6.9836965653248025e-21  1.4196782221499803e-50  2.2424658027392577e-85  0.0000000000000000e+00  4.9034547776569460e-69  6.2720558814662963e-86  5.1876804861014157e-73  2.5659583880100309e-16  1.3506881357297947e-55  1.7225892464125250e-60  3.5433008721455861e-48  5.0518085859588324e-39  5.3075068158775857e-31  2.6309570255407276e-36  1.1224248510388608e-41  6.5782746325530774e-85  -1.5899979056378730e-10  1.7749123522214564e-03  1.8326087980620048e-63  2.2455571380720842e-74  6.2264641630514903e-09  0.0000000000000000e+00  2.9986785244671513e-47  1.0000000000000000e+00  6.1222079870417143e-58  1.0000000000000000e+00  1.0000000000000000e+00  1.0000000000000000e+00  7.2161287140894865e-20  9.4005483288639100e-31  4.6888803172277728e-58  2.9275316804175660e-36  1.2814195329926760e-52  1.0257135769658100e-41  4.2128546496607829e-47  7.6381751030398928e-20  6.1926454995869178e-80  0.0000000000000000e+00  0.0000000000000000e+00  6.1404757551222226e-09  0.0000000000000000e+00  7.9112994503637570e-80  0.0000000000000000e+00  2.6006764579645438e-25  6.8877122046854679e-69  9.2907348864835028e-31  1.0000000000000000e+00  1.0000000000000000e+00  1.7487391477560925e-85  2.7985332032057430e-58  1.3563577629781030e-24  8.8133430091184223e-13  2.0012218528464501e-54  7.7029202904635048e-71  7.3553852558139921e-72  1.4887624286612311e-79  1.0574642282471529e-69  1.9193858152442994e-07  1.6250597873067114e-77  5.9916919478915624e-82  2.0502929231651768e-85  3.0776975989900867e-31  6.5250311238350695e-68  2.6500548395948183e-16  1.1651001007780643e-71  2.9390629797178804e-71  3.5073221240060447e-46  3.3340527177065353e-64  1.3931390738457920e-50  3.7483168464541840e-62  9.3189810229796338e-59  2.2656064184899348e-34  2.0188652497227845e-07  3.7124827729637658e-82  1.6948470401527070e-29  1.7449731471423546e-67  1.8581152848763833e-21  6.3743716405134070e-33  5.5035901889001356e-26  5.2128820126016044e-44  4.5875266559563310e-80  2.9519620236144163e-82  2.1144645955420127e-35  6.1264012560869357e-86  7.2771914144306141e-82  1.5099272617797898e-03  1.1407495282981300e-40  3.1574558884819677e-62  7.8414428657579063e-41  2.8604266731432344e-51  3.9511341273271935e-54  6.5106761974451843e-40  1.2901876013348389e-41  3.2724677740852494e-38  7.8228399970133242e-62  4.1408447150071784e-46  4.0691183956268488e-10  1.9563977734527039e-18  2.0364405005351323e-29  1.7104748520803167e-10  4.3993904799152145e-06  1.5877157523348273e-11  3.6353428645484771e-55  3.3981649359728042e-34  2.2332678622662395e-37  2.4456652755878330e-81  2.3627457660039099e-17  8.5792358055523132e-51  3.2067185191160727e-29  1.6685398801416290e-79  2.2388323629272809e-76  2.6260594343938788e-74  5.1644416150712143e-24  2.5129598559521456e-55  5.3781255290037253e-46  3.0896368183695384e-34  1.5237852433141409e-28  2.7771779211288470e-11  1.0282980113852778e-09  1.3769309012368518e-33  1.0740432278472892e-06  3.6784795205897377e-17  2.7394014797811824e-76  1.2644658279089228e-26  1.5790009382841519e-75  7.0108938374050298e-20  2.2080099527765301e-77  1.4569382339302411e-76  1.1239665742320071e-11  6.9580786395761711e-14  1.1584944088053869e-48  5.5541222048914848e-56  5.9431251254475094e-14  3.6603845140877188e-34  1.7865784889207704e-39  2.8922547649162881e-38  6.6009055400380095e-74  2.5819550398471534e-75  5.2196310366410700e-54  8.8965424660664374e-86  1.6956053223942233e-82  4.7960182286979770e-65  4.3408380351321588e-38  7.3740167897820450e-06  3.1604892856424408e-08  1.2326636554141693e-44  8.5736660244121608e-46  3.9816569981314956e-68  4.8546179681049844e-80  4.9844257560591055e-26  1.5727700188316018e-10  9.7952822758196006e-79  2.1562053282629324e-41  1.1401905578064658e-30  1.2921438248571770e-05  4.1364949404041700e-42  3.6158720904253288e-56  1.6054033047281161e-18  7.9462840488683023e-22  6.2194054058659952e-20  1.6311252250242508e-24  2.1325487310364813e-27  2.9260073468123366e-52  1.3357387824131233e-64  9.8003132994502350e-67  1.3443917050102453e-20  5.9118617260253669e-49  8.0654708233282775e-67  2.3489528945586657e-09  5.8131872944163964e-68  9.1099868389303900e-69  3.5109929136872895e-65  1.0186420689989356e-65  1.1821037315393593e-31  4.9661515344065240e-54  7.1696917042611867e-42  3.2301342128337989e-66  3.7638332357007068e-52  2.7813676720080212e-51  8.3534595674614302e-81  6.5089786773632824e-29  1.4531341913093528e-72  3.0451991014348343e-23  4.4837213765065090e-20  4.3104587961611802e-14  1.8126741566634857e-39  9.0605245510998939e-83  1.1700220327936032e-83  3.9518374697169756e-09  1.5929596869474301e-58  5.2146758586438100e-86  1.9063069695586990e-13  1.3963706421984401e-78  3.1288360327298622e-76  7.9516842875064220e-86  2.1911091750228339e-86  3.6744783796648331e-51  3.3474361598187381e-53  1.6125835150096946e-84  6.0367052818897043e-23  1.9651424220348590e-23  6.4579254800676365e-32  4.7513071358353626e-82  2.0622266929978803e-73  3.2391938353133169e-71  2.7527333939609578e-63  4.8655109627270372e-40  5.0119030748159109e-15  1.4843125551322096e-29  2.9462977009912139e-83  1.4456721723840743e-58  3.2515701775300470e-56  1.1453838258992678e-75  2.9393724437327248e-73  -1.4599664577732185e-69  1.4933527363484623e-37  5.3372857033699242e-13  6.2725089469844289e-14  1.5486086023416276e-59  2.8545474171554096e-56  1.2132096330389615e-75  2.2960990792983230e-69  2.5694830232570282e-10  3.9510806558548931e-79  7.4334293685302358e-38  2.5726012198431855e-84  -4.4292463587403269e-63  5.3445264442821456e-41  4.7179552873283109e-44  6.7080781577718520e-71  1.3988732522088218e-68  8.3475927106140595e-16  1.4735640008595281e-05  9.0472270619112519e-03  -3.1449280961680337e-35  5.8009388448284095e-33  9.4130972632996141e-65  4.7670676173751156e-63  4.7011315021241946e-36  1.1048399379476960e-17  1.6601000394508974e-44  3.0732001917150135e-12  -3.4915720721369748e-49  1.6214123811686776e-46  6.0182012304069092e-26  1.6532792963324189e-02  9.3386863422425335e-03  -6.5314286743079318e-49  2.0849044688482131e-10  4.9986863122502550e-26  1.6963286026291746e-05  2.2346980031281548e-06  1.6106110920075169e-57  9.8687755812315249e-54  5.3854680435370656e-84  1.7532232950572522e-86  7.8313278039108416e-74  7.8608674209305664e-76  1.4255006115018755e-03  3.3350769957049614e-70  -9.0885623039196937e-48  -2.1570357657198236e-14  -5.6889481002114881e-56  -1.7239218845430326e-86  1.1444019471773382e-30  4.4927499141752573e-22  -1.7760915163623523e-18  5.7027426683102821e-86  -5.1334995931161147e-77  -2.3549102381404425e-25  4.0979934397479636e-07  -1.5810028130715412e-78  -3.2796917488682665e-63  2.1192946731640237e-37  3.0183013716308771e-80  1.5050576722659788e-67  1.5456812235387066e-44  -2.1918825689674259e-86  2.3006506631406311e-72  5.2581990754081483e-03  9.1878672294339776e-03  8.6495102668063852e-03  6.3977509949147590e-25  3.9616258749323038e-22  5.5455620119810534e-22  2.6234244840660656e-06  2.6886761311271621e-52  4.2479380497886263e-32  2.0964351581650455e-35  -1.3090236363289277e-46  2.7714760492956786e-49  2.2792872200592317e-50  1.0714205558073158e-48  3.5859965499073672e-47  5.3862529071467142e-82  -9.1498570126328204e-80  1.3279832764507747e-10  8.3499650320292653e-82  8.7494709093175806e-28  -1.8945965488403994e-24  -8.8057466224839106e-28  1.3598937180640511e-61  1.9626880117039304e-62  -2.7358918356673770e-60  5.0703344004347029e-76  1.5769248773432071e-07  -1.1300634873071941e-33  8.9212819416852909e-37  1.0353236858741880e-81  1.1754465850525665e-47  1.3504487459847790e-47  1.1648972272244458e-43  4.6551631898571022e-26  1.5962756643702570e-86  2.6643083133409114e-69  1.9134931367147642e-32  4.7252265497555712e-45  6.9345522118854343e-43  2.3258133288464938e-45  7.6945472404904003e-52  1.0829249843365685e-46  4.4832326943059400e-07  1.5049405570667136e-05  1.2332631398685860e-59  9.3668751870100118e-03  4.3701860976031228e-75  -2.4717385845126907e-39  5.0390801860023098e-81  1.1765154641197299e-25  3.3695574234449747e-29  2.7517664696931381e-57  -9.1269330755306325e-58  2.7206201498727562e-60  1.7652164029924332e-14  3.6202070397026918e-43  5.9880468862174467e-43  2.1299960690762793e-60  3.2489642659723744e-48  3.5465453654064028e-05  3.8157752807732662e-02  7.2412864143635352e-19  7.7510253331542510e-61  6.2799109624985116e-40  9.4230021697873140e-55  2.1966254309382578e-69  9.7553202744631676e-16  -1.4565002369676229e-54  2.2959494556096875e-52  -9.1788023357168734e-56  1.9607365217329238e-40  3.8246309637684994e-02  1.8481754444489754e-29  4.0453125639216408e-17  -5.8748914273438316e-21  4.5206485297548786e-68  1.7548046474594565e-62  7.7012959978308769e-67  3.8237395652359250e-02  3.7710144833240720e-02  3.0363790160169380e-38  3.7554158203824843e-02  1.5934188836676807e-08  5.2181859749925185e-22  6.4588653924142329e-49  1.0837532234568284e-49  9.6207448367725903e-23  -5.3846235607198062e-53  5.9222062016536083e-74  -2.4047147709196595e-72  -2.6774377697521477e-10  1.5617535938390233e-44  -2.1448004194936434e-42  6.9560209845178292e-12  3.9008407534950919e-08  1.1391471001817789e-77  6.4998556753563053e-43  4.8468017113526106e-84  -9.1778742935502332e-87  1.4371834802482291e-46  8.0935054654178055e-16  2.5630175867900554e-73  1.7882184789187607e-86  6.6879108807132254e-17  2.3129862871131390e-17  3.7792039956440122e-34  5.1254602209554183e-58  5.9672879002512959e-21  2.3188925714260791e-27  1.4517578396683160e-69  4.6543591921407785e-67  7.0997401347175094e-70  1.5588297874423913e-53  1.5303603381188047e-52  3.2924971118881504e-51  2.8964098045889797e-62  1.6538969638590704e-78  -2.9400232992974892e-42  1.0951904125200981e-40  3.0187730751355202e-50  3.3493212028826278e-82  1.7089310686674798e-36  1.6773696075086534e-18  5.4940221912684609e-37  9.3537523505106346e-16  6.3530294600928407e-72  2.5854247947839241e-34  2.4698499313965620e-28  2.0764988239439289e-23  1.3616758982390711e-21  3.9499881860732119e-65  7.9248403162801636e-58  -5.1320496296557774e-60  3.6279817297684497e-49  -2.4256236623329044e-50  5.1724641929211921e-29  6.1227807624050876e-05  4.0633024021811303e-31  5.9067024845556823e-66  4.8457142524637955e-16  4.4261494430146717e-25  7.3625493102004672e-55  2.0254955633281109e-87  6.5794798876621522e-54  2.7229907807522974e-84  2.2865662314231174e-31  1.7656987549623631e-72  3.6089303878249672e-62  3.9216288951897893e-62  5.1058492911225753e-63  -1.7479398468089607e-62  3.5110648580884151e-59  2.0069741076423620e-58  1.4956619831749291e-10  1.7037145820378768e-67  6.7964211997460983e-37  5.5828406277687551e-36  1.0115693250310289e-33  1.1194713971018968e-49  2.7313589505252762e-04  8.0807488611160316e-64  5.1872285288511036e-17  1.1312076333061475e-72  1.3760380327485367e-40  6.1611272217624573e-26  3.1051598931313307e-81  1.2001821439940821e-71  9.9482879035302849e-62  1.2477508656724430e-10  1.4577869978643435e-07  2.4322739645496221e-77  6.1082208476484351e-13  2.8546601867736356e-12  9.0226242485942136e-84  8.9719582188514818e-45  5.4051237220074497e-48  1.9261943212314789e-08  5.4240485654408782e-25  4.4370469107888420e-24  3.0836662024478092e-70  2.0283713609144389e-15  3.3820904645087870e-15  1.9704468159885456e-71  1.1310700584860887e-21  9.5973037197583868e-20  1.5970306825662582e-18  4.1726207582680534e-34  3.0906467679654911e-18  1.1396305478441984e-56  1.8377793589309674e-58  1.0244924983041880e-56  4.3847946939175611e-02  -4.6266474259801523e-65  5.9667471527565996e-66  1.3440671318068426e-43  1.6491308087344237e-18  -3.0197462047617559e-14  1.1345795834829659e-73  1.9001927327902183e-33  1.1738207085640438e-34  1.8859081823245214e-65  2.5548333328481306e-80  2.1743754116093040e-06  7.7993582452583341e-28  9.9976974405191311e-35  2.2024643434441449e-75  6.0711696807322935e-55  4.6806164700768930e-60  8.1442878927723640e-10  7.0677495522694035e-60  6.7025431134052218e-64  1.0729353861251810e-86  1.2351079409895054e-71  2.3955249884704033e-53  6.7306976671538552e-09  1.1791861391561321e-42  5.5166709648347611e-41  1.0915600010325165e-49  4.4526843849510876e-33  8.7519276131060459e-78  5.7241813576226465e-56  1.8185780740762100e-50  2.9466986740393550e