<?xml version="1.0"?>
<VTKFile type="UnstructuredGrid"  version="0.1"  >
<UnstructuredGrid>
<Piece  NumberOfPoints="32099" NumberOfCells="63428">
<Points>
<DataArray  type="Float64"  NumberOfComponents="3"  format="ascii">0 1 0  0 0 0  2 0 0  2 1 0  1 0 0  1 1 0  0.5 0 0  0.5 1 0  0 0.5 0  2 0.5 0  1.5 1 0  1.5 0 0  0.75 0.5 0  1.5 0.5 0  0.375 0.375 0  1.125 0.625 0  0.28125 0.71875 0  2 0.25 0  1.75 0 0  2 0.75 0  1.75 1 0  1.25 0 0  1.017857142857143 0.3214285714285714 0  0.75 0 0  1.708333333333333 0.2916666666666667 0  0.5679347826086957 0.7214673913043479 0  0.875 0.75 0  1.305600649350649 0.2846996753246753 0  1.75 0.625 0  0.625 0.25 0  1.25 1 0  1.375 0.75 0  0.25 0 0  0 0.25 0  0 0.75 0  0.25 1 0  0.75 1 0  1.598214285714286 0.7946428571428572 0  0.875 0.1681547619047619 0  1.508244264625336 0.2143493347914263 0  0.537924619652453 0.5112261410426409 0  1.125 0.154265873015873 0  0.21875 0.21875 0  1.1875 0.8125 0  0.1796875 0.4140625 0  0.4375 0.1875 0  1.289794950204951 0.4943848506148524 0  0.9375 0.5625 0  1.8125 0.8125 0  1.869047619047619 0.375 0  0.306640625 0.541015625 0  0.1416015625 0.6081194196428571 0  0.375 0.8715277777777778 0  0.7878874375837291 0.3248062812081354 0  0.153125 0.846875 0  1.838541666666667 0.1614583333333334 0  1.673611111111111 0.4652777777777778 0  1.375 0 0  0.7131428669914515 0.8253214334957257 0  0.7206235893771994 0.6614203860924323 0  1.653859750753041 0.1350752024885296 0  1.171553649596502 0.3800337391363729 0  1.020833333333333 0.8333333333333334 0  0.4360525641032634 0.6330299904393442 0  1.508928571428571 0.6607142857142857 0  0.125 0 0  1.562047069667471 0.3588464594484652 0  1.066821025796166 0.4870369226115026 0  1.372434789129916 0.1501830428251819 0  1.397572001626963 0.3970706043732994 0  0.5715219737723877 0.8698933499126715 0  0.9042584128096922 0.4174908995079927 0  1.003472222222222 0.6944444444444444 0  1.272705049795049 0.6420899004099017 0  1.3125 0.875 0  0.5245753803475469 0.3616507606950939 0  0.7293202423318081 0.1459101211659041 0  1.469246031746032 0.8591269841269842 0  0.875 1 0  0.5625 0.125 0  1.85444568452381 0.5213913690476191 0  1.875 0.6875 0  0 0.125 0  1.392655346118954 0.5811272954775059 0  0.6619703121556711 0.3842420574783494 0  1.125 1 0  0.375 0 0  0.3167613636363636 0.1235795454545455 0  2 0.875 0  1.875 1 0  1.605229591836735 0.5747590702947846 0  1.699083011583012 0.8788610038610039 0  0.9982225529100529 0.1292162698412699 0  1.375 1 0  0.625 1 0  1.625 0 0  1.875 0 0  0.625 0 0  0.375 1 0  0 0.625 0  2 0.375 0  0 0.375 0  1.125 0 0  0.875 0 0  0.125 1 0  0 0.875 0  2 0.125 0  0.8347154254703812 0.875 0  2 0.625 0  1.625 1 0  1.249055982776079 0.1727441706461531 0  0.4001949725348535 0.7509141330152288 0  0.1076766304347826 0.3125 0  0.1206266972802661 0.7287876397828053 0  0.839045334706977 0.6338484449023256 0  0.1026785714285714 0.1875 0  0.1875 0.1025191326530612 0  0.647087651085914 0.56465454646987 0  0.4175806492347585 0.4896150099790182 0  1.124723442875088 0.272006546354114 0  0.9025364992112173 0.3002552609864784 0  1.710459183673469 0.7423469387755102 0  0.2611111111111111 0.8857638888888889 0  1.177286695349859 0.521702157920197 0  0.3359375 0.2578125 0  0.267578125 0.345703125 0  1.107291666666667 0.7350694444444444 0  1.615946089418426 0.6860954641972395 0  1.819940476190476 0.2730654761904763 0  1.75830270586982 0.3919383189517417 0  1.60542025246854 0.2604314953837324 0  1.47529437030095 0.1082834354672917 0  1.407616811984598 0.2515245892897627 0  0.5417644749872034 0.6179405079134659 0  1.292605834233751 0.3891584395767265 0  1.571560171687723 0.9025449465500486 0  0.4948260752512502 0.7974906259153529 0  0.9397899849485198 0.9078383314518984 0  0.8133000292679321 0.08407738095238092 0  1.476686507936508 0.7574404761904762 0  0.1110425383368033 0.5013559892496797 0  0.2112130102898548 0.5094901147101452 0  0.29931640625 0.44091796875 0  1.1875 0.07713293650793651 0  0.4106128246753247 0.0922957251082251 0  1.90625 0.78125 0  1.890625 0.890625 0  0.53125 0.21875 0  0.43359375 0.2903645833333333 0  1.21875 0.90625 0  1.111378205128205 0.8926282051282051 0  1.269897475102475 0.7471924253074262 0  1.029513888888889 0.5989583333333333 0  0.8522579878681762 0.5057260363954713 0  0.4735106227127113 0.9007265262494941 0  0.9590087510503688 0.2195632990669812 0  0.6875 0.9219597779820848 0  1.297061602521838 0.08663184834406668 0  0.8057486862661835 0.4203625921047867 0  1.793269447512567 0.9105428610875859 0  1.192060400311378 0.6922481068149043 0  1.754252759835165 0.5248380520595106 0  0.09102701677793967 0.09104872753828278 0  0.7253449499868028 0.2462465282608479 0  1.484694639796352 0.3053830929854885 0  1.739818341109988 0.1929433411099884 0  1.742395305945888 0.09633901341431061 0  1.5625 0.0712199154988299 0  1.92926747311828 0.1875 0  1.90752469027583 0.09218971500852076 0  1.40768629618205 0.4894347989095132 0  0.08806450569358179 0.4027157738095238 0  1.912105021337907 0.2781978201831695 0  1.213814955489757 0.2975491648102477 0  0.2318947826372472 0.7975197826372472 0  0.06766581632653063 0.8125 0  1.93452380952381 0.4375 0  0.6247824869223918 0.4719944419277 0  1.0625 0.06548008473267392 0  0.3365452571729279 0.6359685188818469 0  0.2379420733423327 0.6299633247212709 0  0.6875 0.06556243656869358 0  0.3236766744217268 0.7978685432210111 0  0.8310171284078489 0.2462432983132972 0  1.934836256037958 0.5625 0  0.9161950191268687 0.08407738095238093 0  0.6255648715181676 0.7943309019754321 0  0.7969452222935728 0.7938361597008705 0  1.049114351431065 0.2049887101224473 0  0.1836020902149457 0.931618241059888 0  1.587837819422641 0.4878002082243154 0  1.656458741565034 0.3715695260907847 0  0.9746733823051021 0.4776637837933646 0  0 0.9375 0  0.0625 1 0  0.08488520408163265 0.90625 0  0.625108507899049 0.6519433794169625 0  0.9179752099882805 0.6730563883756762 0  0.4799911838279058 0.7100598895640633 0  1.79655612244898 0.7264030612244898 0  1.028270112243967 0.4083923893159024 0  0.9066957593018397 0.8292061892030722 0  1.358770484011389 0.6629439624162315 0  1.4375 1 0  1.395391088162172 0.9116794559189138 0  1.482797859881745 0.3908170231280859 0  0.6455330629466264 0.1384632183556422 0  1.029395089402758 0.9190389695086781 0  1.836666296419157 0.607917407161686 0  0.4535978296068884 0.4110171803721298 0  0.06550603987731521 0.5721451437613042 0  0.9569373077851933 0.7631562395310373 0  1.583993153355993 0.1801147415980886 0  0.7937649993393823 0.707466203500723 0  1.824565284334692 0.07855596330344469 0  1.219218268800778 0.4490550565788002 0  1.09246753402758 0.3566001189940414 0  0.7281178214686024 0.5794009834944619 0  0.6932515372564962 0.7422923192533981 0  0.1868917396185889 0.3326442902239 0  1.381389496819767 0.8313197484098837 0  0.3251953125 0.9357638888888888 0  1.822983647514895 0.4443292349237342 0  1.522805799535004 0.579338169867103 0  0.1996769442187233 0.7035837018142242 0  0.07584180090947087 0.6588459491136841 0  1.179616205578152 0.2132648206592699 0  0.4805199872536258 0.5667179735898049 0  0.3858701449073073 0.5665964231522445 0  1.098089669722258 0.8141404887505225 0  1.687233248862278 0.572163739146816 0  1.551166608520145 0.7312353751304908 0  0.4922995523139784 0.0819752238430108 0  2 0.9375 0  0.768368512152681 0.921241957327667 0  1.247199476430077 0.5642976316950705 0  1.6875 0 0  0.6774039677538598 0.307779775489877 0  0.6000141078244342 0.3319476482371208 0  1.434261329029022 0.6895619774012085 0  1.66493947909829 0.2113935814263256 0  1.443093262894167 0.1764378413598336 0  1.402006909638446 0.07557472224679147 0  1.340345392925933 0.2181010093132612 0  0.5554578582348065 0.4342779583340344 0  1.107361224480081 0.551189700840597 0  1.138385583366683 0.4523261983614127 0  0.8533445989779486 0.3620185773637825 0  0.9515078554899268 0.3581664525345664 0  0.5386270525248704 0.9365222029658709 0  0.7385910931871089 0.3834681382026311 0  0.802177695014711 0.1569173507111856 0  1.678649386507641 0.6460608856108409 0  1.321228366282072 0.5614685347415731 0  1.41359183689185 0.3250565808516193 0  0.6954048733751652 0.4501669473459832 0  0.1485611191567167 0.2482653329281137 0  1.3469535863885 0.4493494260445651 0  1.465721499292709 0.9323462488904651 0  0.7981542850547552 0.555986631721179 0  1.538905404408536 0.8372354119916759 0  0.5402362619913743 0.2907759906818941 0  1.544445456917978 0.4294227313618058 0  1.64210730014833 0.927239663021229 0  0.6436701064529 0.8643871094205939 0  1.458142277220564 0.6101822863463986 0  0.4380500880834657 0.8395863885666418 0  0.609775472096462 0.930213850449219 0  0.2582723336415264 0.07535405277673025 0  0.2464725418959271 0.1492463151953984 0  0.3026740927503065 0.1940782140226835 0  0.6136302244057281 0.07244011220286403 0  1.037390873015873 0.760734126984127 0  1.064236111111111 0.6597222222222221 0  0.4095428818227003 0.9357638888888888 0  0.5950820785655451 0.1868339607172275 0  1.261352524897525 0.8210449502049508 0  1.28125 0.9375 0  0.5 0.15625 0  1.9375 0.71875 0  1.927210589804446 0.635671179608893 0  1.9375 1 0  1.626447537183655 0.8588601831331419 0  1.669722968375728 0.8015190092763261 0  1.741107994028916 0.8070548843809463 0  1.204001864890377 0.6215380952542296 0  1.677831627302534 0.06931873288731356 0  0.3125 0 0  1.869908299928041 0.2232403652524313 0  1.348462648995713 0.3483571605131688 0  0.3786180084120425 0.1527303780499803 0  0.3487561798996458 0.06314489251279025 0  0.2360060703178168 0.2849796364162243 0  1.612623216848136 0.4240614066492297 0  0.5625 0 0  1.44829775698497 0.5431703903381939 0  0.6734193446913824 0.2012552484100826 0  1.321327673059477 0.790563647738753 0  0.9661399202258864 0.6245602277896942 0  1.807323292851816 0.3419398170341963 0  0.9999257554414013 0.5392912151029183 0  1.741351399185104 0.457933324954483 0  1.1875 1 0  1.939453125 0.841796875 0  0.8125 1 0  1.15625 0.9414854812476081 0  1.6875 1 0  1.732215719876833 0.9362048860500158 0  0.3490171788168188 0.7041577754578493 0  0.874866
[...]
<PointData  Scalars="f_470"> 
<DataArray  type="Float64"  Name="f_470"  format="ascii">0.0000000000000000e+00  0.0000000000000000e+00  1.0000000000000000e+00  1.0000000000000000e+00  3.7187007177320710e-44  3.7180502883114901e-44  7.1708883202397023e-66  7.1709951740647057e-66  0.0000000000000000e+00  1.0000000000000000e+00  1.9282922411112366e-22  1.9284392173916106e-22  5.1639503046202349e-55  1.9283342595436095e-22  2.6721805140449141e-71  9.9783219955523082e-39  2.2662004676945109e-75  1.0000000000000000e+00  1.3885226433389665e-11  1.0000000000000000e+00  1.3884695253740819e-11  2.6778542202404558e-33  2.2177609813818649e-43  5.1639104169864720e-55  2.1519823463967861e-13  6.3959181597333101e-63  1.3857864902929257e-49  6.9581702923239635e-31  1.3879951617494427e-11  1.9240025413688052e-60  2.6776903097681063e-33  7.1856503004637714e-28  9.9584383991457825e-77  0.0000000000000000e+00  0.0000000000000000e+00  9.9577476900196448e-77  5.1640427757151334e-55  3.5526681798523036e-18  1.3854639420976743e-49  4.3968714492702987e-22  3.1813622323248560e-64  9.9774578605358450e-39  4.3748095183676828e-78  5.1675069844543907e-36  8.8004492523602442e-80  1.3839548956257843e-68  1.4321528291203459e-31  7.1767801174938138e-47  7.1921483730552278e-09  2.0546364508482599e-06  2.8711656816263572e-74  1.9518715246304694e-81  2.6721121651846787e-71  2.2825803212942550e-53  6.1782206084671756e-81  9.7224462641701142e-08  6.6834233000932610e-15  7.1852108538491719e-28  1.2947821090074607e-56  2.7357021312478189e-56  9.2720917725949414e-16  1.0491909008792699e-36  2.9860351327370896e-43  1.1977172859121014e-68  4.7090603266681293e-22  3.7109228034001199e-82  9.5465104447251974e-20  2.9668389365740816e-41  5.5596364182026312e-28  6.8660187326640748e-27  9.1558226472905913e-63  2.5839907396886517e-48  5.2615160915721498e-44  2.5925535085388441e-32  1.3871231059468156e-30  8.3726272264733822e-65  6.5281569601345567e-56  8.9025396856005309e-24  1.3857873384853200e-49  3.7141628892000250e-63  4.7708929597991492e-07  3.7255095879840036e-06  0.0000000000000000e+00  4.1990522476239816e-27  7.7601191201343751e-59  9.9784456727606144e-39  2.6725477509998999e-71  7.8991999772726018e-74  1.0000000000000000e+00  3.7255972389269165e-06  7.1652568444270562e-18  8.5358472545403826e-14  3.1122314644049034e-44  7.1853179227580996e-28  1.9245167738303258e-60  5.1750957004399877e-17  3.7265284682911622e-06  1.9243917282034439e-60  2.6721055397707012e-71  0.0000000000000000e+00  1.0000000000000000e+00  0.0000000000000000e+00  9.9800484359184571e-39  1.3857384872325685e-49  3.7112034085478785e-82  0.0000000000000000e+00  1.0000000000000000e+00  2.4654670861558479e-51  1.0000000000000000e+00  5.1740768914756047e-17  2.4359181806785045e-33  3.3194359652010287e-70  6.5592841364016256e-83  2.3953792335703716e-82  3.8026118396092986e-51  3.9816664045684078e-83  1.9219262487564621e-79  1.7515565143822219e-59  1.8879729350509344e-69  9.7060061225666402e-39  2.1754967673875608e-48  2.6621144181347144e-13  3.0244430228558336e-76  1.8611622077835311e-36  5.3741275175686203e-73  5.7756132901695204e-76  1.6979350163529911e-39  2.0918961915117002e-17  1.5136599806518110e-08  3.1843669413042456e-11  7.3004995883310744e-18  1.6299789001636513e-23  1.8748610094751469e-26  4.6705112406506311e-64  1.8966688148405899e-31  2.4710432317104167e-19  4.2736893622888844e-66  9.0242827311615509e-47  2.8965901836375550e-52  1.8730424999866908e-23  9.1840365617076607e-83  2.0585764532010915e-78  1.3800916033027469e-74  5.1691590865267949e-36  9.4080485612171127e-70  8.4796921236124785e-05  1.7775318713263234e-05  1.6320096297926209e-64  9.3638773227885654e-69  1.1765607466560155e-34  2.5550783690046179e-39  1.9583342150351531e-32  7.1140587133112883e-43  1.4251608124593327e-50  5.0717193545528885e-67  6.1677863157453176e-46  9.9679360903249659e-58  2.9614260726613336e-31  1.3614783677774922e-52  1.0512326075140182e-09  8.1530067497148019e-36  2.1242791064791081e-11  1.2409753951157281e-83  4.3865641359539945e-56  4.1721458533612247e-23  5.0160613946655998e-12  6.4909178023883927e-12  9.9862368412038058e-20  8.4733554566610123e-04  9.6322599776161411e-05  1.8878567758653441e-26  9.2325721318615442e-84  1.5229740127420128e-04  7.1807265021244423e-35  1.6286569691232040e-77  1.1990268102072450e-84  1.4332562907852469e-03  1.8817064587038618e-60  1.9259957222328308e-41  5.7114918025017626e-73  2.9809827418301477e-77  9.9667575645107276e-58  1.5772038633401163e-73  1.7039610363451135e-51  1.4788141303522032e-03  8.5257165366061130e-48  2.0359322852931264e-60  5.6465987113759865e-53  5.0498792034356488e-42  1.3018592565430271e-79  1.2579802232575774e-18  1.2023398337989472e-15  2.9541925383548769e-45  0.0000000000000000e+00  7.1495720106948767e-85  6.7157984946023178e-84  1.9451548115410494e-60  1.0187651169203010e-47  9.6961751063801093e-67  1.4600745640139412e-09  6.2814420108348678e-43  3.2968967026372452e-48  1.4177787302213617e-28  3.7222885252095147e-25  5.5216595378385116e-27  3.4517404051658389e-23  1.4998041478813667e-59  7.0300116909540928e-43  8.0589999840457939e-08  6.9241779007609277e-68  9.6601015491627369e-85  5.0137015253991390e-46  8.5686577871248305e-19  4.1083010001673829e-53  2.4036363625861767e-08  1.2327910894681341e-34  3.8562630613602902e-40  5.7883509514673494e-56  1.7715631883379460e-57  1.8089255877001124e-79  1.3613060229897605e-27  1.8359743342538674e-73  2.0515287492292463e-08  1.8858260800134169e-21  6.4950254191252999e-79  2.7182192767936498e-84  2.3496791179311005e-36  1.0223000072231896e-66  7.9230873199357366e-71  6.7657828914839763e-40  2.6098020177702585e-14  3.2158446079199803e-20  3.3201688625171932e-66  1.0000000000000000e+00  3.2410734486266211e-54  2.0236606410707560e-33  2.6805272618264639e-14  3.6317102796484052e-58  1.5817114191226182e-61  2.6924242144154560e-25  2.8080163191664506e-15  6.5118350948633034e-25  1.0695876629945067e-26  2.2459886013821016e-29  1.8368361163085017e-63  1.7098780357375407e-39  3.8050302855060980e-38  1.5891507200901941e-50  2.9131059660747771e-46  3.4129377006489711e-64  1.6499967790637408e-55  9.5277134845744666e-53  1.1061394560708308e-14  3.3196893972004857e-30  3.4079548114782850e-26  2.1971333090690052e-57  3.9150000162429731e-81  4.3491135184001805e-29  6.2585599159224796e-24  6.3711214239915184e-53  9.4331487703860780e-21  4.0087173042930694e-64  1.6420611276718623e-20  2.8628910148288656e-16  1.2447815070315446e-59  2.9312502845705370e-24  1.4622113594050120e-68  4.1981712277328457e-61  2.2768504721993835e-76  6.9985886884261072e-77  1.9306173296784426e-74  6.1729361719042153e-61  1.5638768745483898e-42  2.2914283013480635e-41  8.4479310868546411e-70  9.6588637302654951e-62  8.3289465661815357e-33  6.0942958173126024e-32  7.1711142155588370e-66  1.9297813648289691e-03  6.8982991473672298e-04  1.9302600495743427e-03  5.9801703886982511e-17  4.5308065419177932e-15  5.7062847266639761e-12  2.6920232738490362e-35  1.0191550359185147e-14  5.1586347818599176e-74  2.2393570533730266e-06  5.0571817294513506e-29  3.8367097260391574e-71  1.9360245752227551e-72  2.4563294957866386e-77  1.5008407926074245e-17  3.7146586005312168e-63  1.0953038040348863e-24  2.4385377381253072e-58  3.3523763634376974e-30  1.2583399555416140e-45  4.2860243143889637e-09  3.6904300721352217e-44  5.8470124607979595e-12  5.1693292084132538e-36  2.3448983761143469e-03  2.6751679258960362e-52  2.2709195335661959e-37  2.6805753107322061e-14  2.3445852687821042e-12  1.9881110199103168e-72  1.3673153721303302e-49  4.6751264586713414e-54  0.0000000000000000e+00  1.2915326286452823e-66  1.4331839204046175e-03  2.2303322513642147e-80  3.0141687073683469e-63  1.0757492755343792e-48  1.9304403232446321e-03  1.0000000000000000e+00  7.9463143582801668e-21  1.0258272268475172e-33  3.0072927512776335e-44  1.7672265769690985e-41  5.9869861947933714e-47  1.5490003927114060e-19  3.0298207884106000e-16  2.6876308062496871e-20  7.9804684596795701e-50  7.1505679838139649e-85  0.0000000000000000e+00  1.3843114549632670e-68  5.7091231213571431e-85  2.0370272186967890e-72  4.5104218099721448e-16  4.6515213890902686e-55  4.3254875903703695e-60  8.3125735147514035e-48  1.0751997009497161e-38  9.3459419028014795e-31  6.0542520734165948e-36  1.9265110866039869e-41  4.9584202488122710e-84  2.6125821819206558e-09  1.9183844807600303e-03  3.7144143346253534e-63  5.1586649866110111e-74  7.1927844435096930e-09  0.0000000000000000e+00  7.1790828487487955e-47  1.0000000000000000e+00  9.9675166444839089e-58  1.0000000000000000e+00  1.0000000000000000e+00  1.0000000000000000e+00  9.9892677532946985e-20  1.3871356937254868e-30  9.9680393657560388e-58  5.1690123587293083e-36  2.6752284333071164e-52  1.9261356042917939e-41  7.1780488246868816e-47  9.9882704202494369e-20  1.9224527049905202e-79  0.0000000000000000e+00  0.0000000000000000e+00  7.1915461130625459e-09  0.0000000000000000e+00  1.9224769176690878e-79  0.0000000000000000e+00  3.7223772059531844e-25  1.3843526106655916e-68  1.3871905344285427e-30  1.0000000000000000e+00  1.0000000000000000e+00  3.9907131353639554e-85  9.5675304523665308e-58  3.1638994928659446e-24  1.5926582867403681e-12  6.0213049212796263e-54  2.4045824870115107e-70  2.0933125487436893e-71  6.5125227263316829e-79  2.6025105829810856e-69  2.3998179753313854e-07  5.5951701869161399e-77  1.1608031809837423e-81  4.0965702424541101e-85  6.7590742527097942e-31  1.6293633357463192e-67  4.6630168312616544e-16  7.2416808551547548e-71  6.5388847382501307e-71  1.1403266967441979e-45  1.2850200059922706e-63  3.0402836634611814e-50  1.2410042996964750e-61  4.4986505519338159e-58  4.3004392779453287e-34  1.6370665532706334e-07  1.4596387627821573e-81  2.9531941047803917e-29  4.3504257615786080e-67  2.6433436884549032e-21  1.2659184227901149e-32  9.0876619893348903e-26  1.1555477034562820e-43  1.6133881166120747e-79  8.3605338834048120e-82  3.8021688368547514e-35  2.3323016651515699e-85  2.4251542687530376e-81  1.6508223541456749e-03  2.5952679285083520e-40  7.1145348885701799e-62  1.4702330996897434e-40  6.0395953086057011e-51  8.6427638869230376e-54  2.1020664700106175e-39  2.5973815886233922e-41  6.6794702857054602e-38  4.8216119103187677e-61  8.5730408676330108e-46  4.7965183583634918e-10  2.7847406213191037e-18  3.1563693315060312e-29  2.5535302872502713e-10  6.3177112392785759e-06  2.6396855180745556e-11  6.9543920892202461e-55  5.1635418698612867e-34  4.2713430224148531e-37  1.0888179180733684e-80  3.1298557039806798e-17  1.7227538857389185e-50  6.5110607299796388e-29  9.4239878185668193e-79  5.5666271229706123e-76  6.9684847416961946e-74  8.4708092815381224e-24  6.0931340920007521e-55  1.0306333508279108e-45  9.6017455901929854e-34  2.4427906076219287e-28  3.5302977141701432e-11  1.8293119978104653e-09  2.3420597481378162e-33  1.2211058039304465e-06  4.7318012028320563e-17  7.9306824941960976e-76  1.9093438850007143e-26  5.0854104204886016e-75  9.3676045278896186e-20  1.0633987597723376e-76  6.7239920608237680e-76  1.2734911475187600e-11  1.0736525383855923e-13  3.9670975466618154e-48  1.1178624768393726e-55  8.1793902640265854e-14  8.9610848420568727e-34  4.1161923771803368e-39  5.5545927841441371e-38  1.9043864434555677e-73  6.7790732875933362e-75  1.0879007742261781e-53  4.3084136298496812e-85  5.7206674903787242e-82  1.3149726655392171e-64  6.2882835715305824e-38  7.8774310885469371e-06  7.2257933212649441e-08  1.2127247774280256e-44  1.6338394112971567e-45  8.8222237000415017e-68  1.4139323997177198e-79  9.3073497092088715e-26  1.7747262436850247e-10  3.7619053008468072e-78  3.4598441252364765e-41  4.4150164172764145e-30  1.7040666447945129e-05  8.4296626692064884e-42  5.5031704704236250e-56  2.1616040422359662e-18  1.0408751505496962e-21  8.2908370726789696e-20  2.4478712267626770e-24  3.5679973714619867e-27  5.6433727313932629e-52  5.4416071490107204e-64  2.8009118904540785e-66  1.8916348225736487e-20  8.8880483698002729e-49  1.9307634430780148e-66  2.9124298305775242e-09  1.3149499943356584e-67  2.1594143334200932e-68  5.1644913019864717e-65  2.6307986517667497e-65  2.3475654029772766e-31  1.1198267489900158e-53  1.4042150624501802e-41  1.0873220484106068e-65  6.3791278670976030e-51  6.0879590818874558e-51  3.4542351383915489e-80  1.1254869019268342e-28  4.0713483297014974e-72  1.0847387981928382e-22  5.8880070747583448e-20  5.1399726392459322e-14  4.6270127187741592e-39  2.2529344431741410e-82  3.2180981330412110e-83  5.7666341149150992e-09  4.2321048319964988e-58  1.7561822315699072e-85  2.3081407340291945e-13  4.3755929746596712e-78  6.7684900025693394e-76  2.2109276142605630e-85  7.8564742029308314e-86  2.0443708938820951e-50  8.4866532207924962e-53  1.6302112490855343e-83  8.6410361418519838e-23  3.7069651918816498e-23  1.0871124989187763e-31  1.5306922790893057e-81  6.1425667889761842e-73  8.7156019431120945e-71  7.4516593171237269e-63  9.2229342832900766e-40  1.0156480942570619e-14  2.7750322218631636e-29  1.5476269356403735e-82  2.9426820622930532e-58  7.7768724272494808e-56  7.1575904380784690e-75  8.7196752576969298e-73  3.9553870118666533e-69  2.7745140061138386e-37  6.0988430714771360e-13  8.0106385544807687e-14  4.3791702000089876e-59  5.8462861970702796e-56  3.4630185946851174e-75  9.0300653605977100e-69  3.1594961251665726e-10  1.5674990853493954e-78  1.8799261063795546e-37  5.8523473138812578e-84  1.2936091677267565e-62  1.2893566125044764e-40  1.1600803111221371e-43  1.9652542127300524e-70  3.9052648621398390e-68  1.0258240572122553e-15  1.5442574809362999e-05  9.2083893953909864e-03  5.6121088625044544e-34  7.2416218160354809e-33  8.6046430796574372e-64  1.0481338956568723e-62  7.7746996861580178e-36  1.3859959319734517e-17  3.4993082608515849e-44  3.5908829299959090e-12  2.0708369567727926e-48  3.7036043725734425e-46  8.6236501303844932e-26  1.6618017481253723e-02  9.4944762949030100e-03  1.0703232776897573e-47  2.6595368547642995e-10  7.3631747136217298e-26  2.0655290738575269e-05  2.5854130373672091e-06  3.4649955641272055e-57  2.1533339931613869e-53  1.6302192054880249e-83  7.5557467565365938e-86  1.4545974601071979e-73  1.6174875036445058e-75  1.4407542960099692e-03  1.4211784485973813e-69  1.1614161175929227e-47  9.3715637764274168e-14  3.1115267587187052e-55  1.2919836159114143e-85  2.4189512046555798e-30  1.2663244116357451e-21  3.4358072051360060e-18  1.2772864882348117e-85  5.9708983843408798e-77  4.0341174855757635e-25  4.7507005278336541e-07  6.0572146370323728e-78  1.4094724257276125e-62  5.8630302100825804e-37  4.0413743782421460e-79  6.3016159256105673e-67  3.0220967740885970e-44  6.3985122906042553e-86  6.9977296334488348e-72  5.3340540795172751e-03  9.4225497640442520e-03  8.8341516147248025e-03  1.1145412180870015e-24  5.7447302805309361e-22  1.8535407829898647e-21  2.9797308102444823e-06  7.9169981420339085e-52  6.8315287723347342e-32  3.8703720435649598e-35  5.7335726686185360e-46  7.0261362094786408e-49  5.5741268089741753e-50  3.1540207031199765e-48  3.6175109728673303e-46  1.5367098246118823e-81  6.8945108658195074e-78  2.4811693129667850e-10  2.6487395676821051e-79  1.1120340140894509e-26  1.8591416331158219e-24  2.9626645843865250e-26  2.6811821740889954e-61  2.1215320712836985e-61  1.0764501411761730e-58  2.2658375257150200e-75  1.5699394784569852e-05  6.6392851471754767e-33  1.5085137598098218e-36  6.6394969232555095e-81  4.0971396421594753e-47  3.8825539369604214e-47  2.5951373012735423e-43  1.5562187428574220e-25  3.9364452155877346e-86  1.6040411572479916e-68  6.0932668772949351e-32  3.7592457676836148e-44  3.6544493462285602e-42  4.9173376459803533e-45  2.3431832440147359e-51  5.6513594365105749e-46  1.7081201926600889e-06  1.6786632242606893e-05  3.6690776995647886e-59  9.5517843615756520e-03  2.3803747051274273e-74  2.3226267567727064e-38  4.8079762378041010e-80  4.1897026902296546e-25  1.8692266450575570e-28  8.3706458082404027e-57  2.2686219163758768e-56  1.9060361816822857e-59  2.8116049311445992e-14  8.4622370126454061e-43  1.3895731692822150e-42  1.0707064084892621e-59  1.7732884865575672e-46  4.9481486704433865e-05  3.8441571660646448e-02  9.4399682266640491e-19  5.3823921517691679e-60  9.8988258260336891e-40  3.7119523262188843e-54  2.0139288686920246e-68  1.2429945629716902e-15  1.1747616118878997e-53  5.3288548375635421e-52  5.6336119762815426e-55  4.3843198916745632e-40  3.8401509527715219e-02  5.8200410115050341e-29  9.8079098571824312e-17  1.2298325312532798e-20  1.3910332320680321e-67  4.4191544861638110e-62  2.8661630636297319e-66  3.8453169004832193e-02  3.7859572384348977e-02  2.2711019417162929e-37  3.7718029808015696e-02  4.1204951739155822e-08  1.8477450184526802e-21  1.4311505944277353e-48  2.3741772184551043e-49  1.8831236520536445e-22  1.2492805379631903e-51  5.3951229509516951e-73  6.2591987997816182e-72  1.1682162356927782e-09  4.1128259259656991e-44  7.9416558188982130e-42  1.5769389509937897e-11  4.5544488223687370e-08  2.2488439865931744e-76  2.5216489001261412e-42  1.4838671479068712e-83  1.4776847594385950e-85  7.7880579335576230e-46  1.0186128179296337e-15  2.8588278064932870e-72  4.9782863729743738e-86  1.0020012453659708e-16  3.8465135509660216e-17  1.1553947213603805e-33  7.5597928032555967e-58  8.4906714500506944e-21  3.4450757085236181e-27  5.2620780062424534e-69  1.9412655388282080e-66  2.4062063676691474e-69  5.5144517662864004e-53  5.8270476462880206e-52  8.4323671273547914e-51  1.4328067070020333e-61  8.9155986874290167e-78  3.9160214690300948e-41  2.4017512509684716e-40  6.8613660638167003e-50  2.5362692516767159e-81  2.3441972402299270e-35  2.2742507741467258e-18  1.6150655581817171e-36  1.1776157532152529e-15  2.1637390727631585e-71  4.1741233734537842e-34  3.5266142237732816e-28  3.3720395638261586e-23  3.0565267884155774e-21  2.2598514412966613e-64  1.5920948867669034e-57  2.6540204747089817e-59  9.1447116203104844e-49  6.4346605064591423e-50  2.0699350872148369e-28  1.3691696009444617e-04  6.1614939382187822e-31  1.6330369093729838e-65  4.5646330858484548e-16  7.8935172231399110e-25  4.6658193726253915e-54  2.7337931715241627e-83  2.7862912528600751e-53  1.4338198415760757e-83  6.9235639087994110e-31  1.2459026180044528e-71  2.0396285483774892e-61  8.4550498993788663e-62  1.4962599373199002e-62  1.9457560840694069e-61  1.2642582075965509e-58  8.5921212780747247e-58  4.3389767086258517e-10  7.2701981958315878e-67  1.9647028057474453e-36  1.5149738752831216e-35  4.2010923577588667e-33  3.9776329471044563e-49  2.8405452229474408e-04  2.7063771513708327e-63  1.0290046436202482e-16  2.5516449750760524e-72  2.8061650844650944e-40  1.3151512745864894e-25  2.5608428834751224e-80  2.4972339931388158e-71  3.9930636576864028e-61  3.7657676936376978e-10  2.5676857815418913e-07  2.2032007633753749e-76  7.2805846452082652e-13  4.1362956743783830e-12  1.4243639128401137e-83  2.6199417465625913e-44  9.2350848868503346e-48  1.3430326309978428e-07  9.2173404234657683e-25  1.0099796137772656e-22  1.5590819792764520e-69  3.7557563280666707e-15  4.2381024482160435e-15  2.4350022899475848e-70  2.3849275507447468e-21  1.1784554745278370e-19  2.6619206135145710e-18  1.2167430856518949e-33  5.6958712933181546e-18  4.2353244991641433e-56  1.2478861391548434e-57  2.7612761974618287e-56  4.3933539463656454e-02  1.4688969581766019e-64  2.5646472655779429e-65  7.8581171660932348e-43  2.2735101340295158e-18  1.9540357315837642e-13  4.0567572156069886e-73  4.4475218492677597e-33  1.7025150567085313e-32  7.5249701602185347e-65  8.7067734086007576e-80  2.6852581271589688e-06  1.5226817432550251e-27  1.6761532757598511e-34  6.7924168159905562e-75  1.8851249484182559e-54  9.1201302964888022e-60  1.0356545230662532e-09  1.4708364937626061e-59  1.9908560367044966e-63  3.9064947149468300e-86  1.7959055422061896e-70  4.8736457913704748e-53  9.8317858410641121e-09  8.4413432021320621e-42  1.0831438368572505e-40  3.0281409195660338e-49  5.8967843485908963e-32  3.0289231973920993e-77  4.9166364231896947e-55  4.5879277774983237e-50  3.2810562090269705e-06  8.7916626481550886e-77  4.822931969447257