<?xml version="1.0"?>
<VTKFile type="UnstructuredGrid"  version="0.1"  >
<UnstructuredGrid>
<Piece  NumberOfPoints="534" NumberOfCells="970">
<Points>
<DataArray  type="Float64"  NumberOfComponents="3"  format="ascii">0 1 0  0 0 0  2 0 0  2 1 0  1 0 0  1 1 0  0.5 0 0  0.5 1 0  0 0.5 0  2 0.5 0  1.5 1 0  1.5 0 0  0.75 0.5 0  1.5 0.5 0  0.375 0.375 0  1.125 0.625 0  0.28125 0.71875 0  2 0.25 0  1.75 0 0  2 0.75 0  1.75 1 0  1.25 0 0  1.017857142857143 0.3214285714285714 0  0.75 0 0  1.708333333333333 0.2916666666666667 0  0.5679347826086957 0.7214673913043479 0  0.875 0.75 0  1.305600649350649 0.2846996753246753 0  1.75 0.625 0  0.625 0.25 0  1.25 1 0  1.375 0.75 0  0.25 0 0  0 0.25 0  0 0.75 0  0.25 1 0  0.75 1 0  1.598214285714286 0.7946428571428572 0  0.875 0.1681547619047619 0  1.508244264625336 0.2143493347914263 0  0.537924619652453 0.5112261410426409 0  1.125 0.154265873015873 0  0.21875 0.21875 0  1.1875 0.8125 0  0.1796875 0.4140625 0  0.4375 0.1875 0  1.289794950204951 0.4943848506148524 0  0.9375 0.5625 0  1.8125 0.8125 0  1.869047619047619 0.375 0  0.306640625 0.541015625 0  0.1416015625 0.6081194196428571 0  0.375 0.8715277777777778 0  0.7878874375837291 0.3248062812081354 0  0.153125 0.846875 0  1.838541666666667 0.1614583333333334 0  1.673611111111111 0.4652777777777778 0  1.375 0 0  0.7131428669914515 0.8253214334957257 0  0.7206235893771994 0.6614203860924323 0  1.653859750753041 0.1350752024885296 0  1.171553649596502 0.3800337391363729 0  1.020833333333333 0.8333333333333334 0  0.4360525641032634 0.6330299904393442 0  1.508928571428571 0.6607142857142857 0  0.125 0 0  1.562047069667471 0.3588464594484652 0  1.066821025796166 0.4870369226115026 0  1.372434789129916 0.1501830428251819 0  1.397572001626963 0.3970706043732994 0  0.5715219737723877 0.8698933499126715 0  0.9042584128096922 0.4174908995079927 0  1.003472222222222 0.6944444444444444 0  1.272705049795049 0.6420899004099017 0  1.3125 0.875 0  0.5245753803475469 0.3616507606950939 0  0.7293202423318081 0.1459101211659041 0  1.469246031746032 0.8591269841269842 0  0.875 1 0  0.5625 0.125 0  1.85444568452381 0.5213913690476191 0  1.875 0.6875 0  0 0.125 0  1.392655346118954 0.5811272954775059 0  0.6619703121556711 0.3842420574783494 0  1.125 1 0  0.375 0 0  0.3167613636363636 0.1235795454545455 0  2 0.875 0  1.875 1 0  1.605229591836735 0.5747590702947846 0  1.699083011583012 0.8788610038610039 0  0.9982225529100529 0.1292162698412699 0  1.375 1 0  0.625 1 0  1.625 0 0  1.875 0 0  0.625 0 0  0.375 1 0  0 0.625 0  2 0.375 0  0 0.375 0  1.125 0 0  0.875 0 0  0.125 1 0  0 0.875 0  2 0.125 0  0.8347154254703812 0.875 0  2 0.625 0  1.625 1 0  1.249055982776079 0.1727441706461531 0  0.4001949725348535 0.7509141330152288 0  0.1076766304347826 0.3125 0  0.1206266972802661 0.7287876397828053 0  0.839045334706977 0.6338484449023256 0  0.1026785714285714 0.1875 0  0.1875 0.1025191326530612 0  0.647087651085914 0.56465454646987 0  0.4175806492347585 0.4896150099790182 0  1.124723442875088 0.272006546354114 0  0.9025364992112173 0.3002552609864784 0  1.710459183673469 0.7423469387755102 0  0.2611111111111111 0.8857638888888889 0  1.177286695349859 0.521702157920197 0  0.3359375 0.2578125 0  0.267578125 0.345703125 0  1.107291666666667 0.7350694444444444 0  1.615946089418426 0.6860954641972395 0  1.819940476190476 0.2730654761904763 0  1.75830270586982 0.3919383189517417 0  1.60542025246854 0.2604314953837324 0  1.47529437030095 0.1082834354672917 0  1.407616811984598 0.2515245892897627 0  0.5417644749872034 0.6179405079134659 0  1.292605834233751 0.3891584395767265 0  1.571560171687723 0.9025449465500486 0  0.4948260752512502 0.7974906259153529 0  0.9397899849485198 0.9078383314518984 0  0.8133000292679321 0.08407738095238092 0  1.476686507936508 0.7574404761904762 0  0.1110425383368033 0.5013559892496797 0  0.2112130102898548 0.5094901147101452 0  0.29931640625 0.44091796875 0  1.1875 0.07713293650793651 0  0.4106128246753247 0.0922957251082251 0  1.90625 0.78125 0  1.890625 0.890625 0  0.53125 0.21875 0  0.43359375 0.2903645833333333 0  1.21875 0.90625 0  1.111378205128205 0.8926282051282051 0  1.269897475102475 0.7471924253074262 0  1.029513888888889 0.5989583333333333 0  0.8522579878681762 0.5057260363954713 0  0.4735106227127113 0.9007265262494941 0  0.9590087510503688 0.2195632990669812 0  0.6875 0.9219597779820848 0  1.297061602521838 0.08663184834406668 0  0.8057486862661835 0.4203625921047867 0  1.793269447512567 0.9105428610875859 0  1.192060400311378 0.6922481068149043 0  1.754252759835165 0.5248380520595106 0  0.09102701677793967 0.09104872753828278 0  0.7253449499868028 0.2462465282608479 0  1.484694639796352 0.3053830929854885 0  1.739818341109988 0.1929433411099884 0  1.742395305945888 0.09633901341431061 0  1.5625 0.0712199154988299 0  1.92926747311828 0.1875 0  1.90752469027583 0.09218971500852076 0  1.40768629618205 0.4894347989095132 0  0.08806450569358179 0.4027157738095238 0  1.912105021337907 0.2781978201831695 0  1.213814955489757 0.2975491648102477 0  0.2318947826372472 0.7975197826372472 0  0.06766581632653063 0.8125 0  1.93452380952381 0.4375 0  0.6247824869223918 0.4719944419277 0  1.0625 0.06548008473267392 0  0.3365452571729279 0.6359685188818469 0  0.2379420733423327 0.6299633247212709 0  0.6875 0.06556243656869358 0  0.3236766744217268 0.7978685432210111 0  0.8310171284078489 0.2462432983132972 0  1.934836256037958 0.5625 0  0.9161950191268687 0.08407738095238093 0  0.6255648715181676 0.7943309019754321 0  0.7969452222935728 0.7938361597008705 0  1.049114351431065 0.2049887101224473 0  0.1836020902149457 0.931618241059888 0  1.587837819422641 0.4878002082243154 0  1.656458741565034 0.3715695260907847 0  0.9746733823051021 0.4776637837933646 0  0 0.9375 0  0.0625 1 0  0.08488520408163265 0.90625 0  0.625108507899049 0.6519433794169625 0  0.9179752099882805 0.6730563883756762 0  0.4799911838279058 0.7100598895640633 0  1.79655612244898 0.7264030612244898 0  1.028270112243967 0.4083923893159024 0  0.9066957593018397 0.8292061892030722 0  1.358770484011389 0.6629439624162315 0  1.4375 1 0  1.395391088162172 0.9116794559189138 0  1.482797859881745 0.3908170231280859 0  0.6455330629466264 0.1384632183556422 0  1.029395089402758 0.9190389695086781 0  1.836666296419157 0.607917407161686 0  0.4535978296068884 0.4110171803721298 0  0.06550603987731521 0.5721451437613042 0  0.9569373077851933 0.7631562395310373 0  1.583993153355993 0.1801147415980886 0  0.7937649993393823 0.707466203500723 0  1.824565284334692 0.07855596330344469 0  1.219218268800778 0.4490550565788002 0  1.09246753402758 0.3566001189940414 0  0.7281178214686024 0.5794009834944619 0  0.6932515372564962 0.7422923192533981 0  0.1868917396185889 0.3326442902239 0  1.381389496819767 0.8313197484098837 0  0.3251953125 0.9357638888888888 0  1.822983647514895 0.4443292349237342 0  1.522805799535004 0.579338169867103 0  0.1996769442187233 0.7035837018142242 0  0.07584180090947087 0.6588459491136841 0  1.179616205578152 0.2132648206592699 0  0.4805199872536258 0.5667179735898049 0  0.3858701449073073 0.5665964231522445 0  1.098089669722258 0.8141404887505225 0  1.687233248862278 0.572163739146816 0  1.551166608520145 0.7312353751304908 0  0.4922995523139784 0.0819752238430108 0  2 0.9375 0  0.768368512152681 0.921241957327667 0  1.247199476430077 0.5642976316950705 0  1.6875 0 0  0.6774039677538598 0.307779775489877 0  0.6000141078244342 0.3319476482371208 0  1.434261329029022 0.6895619774012085 0  1.66493947909829 0.2113935814263256 0  1.443093262894167 0.1764378413598336 0  1.402006909638446 0.07557472224679147 0  1.340345392925933 0.2181010093132612 0  0.5554578582348065 0.4342779583340344 0  1.107361224480081 0.551189700840597 0  1.138385583366683 0.4523261983614127 0  0.8533445989779486 0.3620185773637825 0  0.9515078554899268 0.3581664525345664 0  0.5386270525248704 0.9365222029658709 0  0.7385910931871089 0.3834681382026311 0  0.802177695014711 0.1569173507111856 0  1.678649386507641 0.6460608856108409 0  1.321228366282072 0.5614685347415731 0  1.41359183689185 0.3250565808516193 0  0.6954048733751652 0.4501669473459832 0  0.1485611191567167 0.2482653329281137 0  1.3469535863885 0.4493494260445651 0  1.465721499292709 0.9323462488904651 0  0.7981542850547552 0.555986631721179 0  1.538905404408536 0.8372354119916759 0  0.5402362619913743 0.2907759906818941 0  1.544445456917978 0.4294227313618058 0  1.64210730014833 0.927239663021229 0  0.6436701064529 0.8643871094205939 0  1.45069998975845 0.6210551534359428 0  0.4380500880834657 0.8395863885666418 0  0.609775472096462 0.930213850449219 0  0.2582723336415264 0.07535405277673025 0  0.2464725418959271 0.1492463151953984 0  0.3026740927503065 0.1940782140226835 0  0.6136302244057281 0.07244011220286403 0  1.037390873015873 0.760734126984127 0  1.064236111111111 0.6597222222222221 0  0.4095428818227003 0.9357638888888888 0  0.5950820785655451 0.1868339607172275 0  1.261352524897525 0.8210449502049508 0  1.28125 0.9375 0  0.5 0.15625 0  1.9375 0.71875 0  1.927210589804446 0.635671179608893 0  1.9375 1 0  1.626447537183655 0.8588601831331419 0  1.669722968375728 0.8015190092763261 0  1.741107994028916 0.8070548843809463 0  1.204001864890377 0.6215380952542296 0  1.677831627302534 0.06931873288731356 0  0.3125 0 0  1.869908299928041 0.2232403652524313 0  1.348462648995713 0.3483571605131688 0  0.3786180084120425 0.1527303780499803 0  0.3487561798996458 0.06314489251279025 0  0.2360060703178168 0.2849796364162243 0  1.612623216848136 0.4240614066492297 0  0.5625 0 0  1.455219933242026 0.5523295593952139 0  0.6734193446913824 0.2012552484100826 0  1.321327673059477 0.790563647738753 0  0.9661399202258864 0.6245602277896942 0  1.807323292851816 0.3419398170341963 0  0.9999257554414013 0.5392912151029183 0  1.741351399185104 0.457933324954483 0  1.1875 1 0  1.939453125 0.841796875 0  0.8125 1 0  1.15625 0.9414854812476081 0  1.6875 1 0  1.732215719876833 0.9362048860500158 0  0.3490171788168188 0.7041577754578493 0  0.8748666148
[...]
<PointData  Scalars="f_278"> 
<DataArray  type="Float64"  Name="f_278"  format="ascii">0.0000000000000000e+00  0.0000000000000000e+00  1.0000000000000000e+00  1.0000000000000000e+00  -3.0839453142179169e-04  4.4028906545014803e-05  -1.2793199783831203e-07  1.4505159031228894e-07  0.0000000000000000e+00  1.0000000000000000e+00  -1.0643997801790178e-02  6.5959567081158924e-02  1.4759304125579308e-05  5.7458051368101552e-02  -1.2546900489276806e-06  6.5769388593410309e-04  4.2763499005807629e-08  1.0000000000000000e+00  -9.0656871082876109e-02  1.0000000000000000e+00  -4.2008689242737388e-02  -2.5853745115629920e-04  -4.5784563443460274e-04  8.3445593149846166e-06  -2.1252932313021883e-01  7.3508002156445197e-07  3.3120755456918948e-06  -1.3586721973651685e-02  -8.6423179607433412e-02  5.7732339037503135e-06  -3.0352470776034664e-04  5.0820028007830930e-03  1.9080585151729680e-07  0.0000000000000000e+00  0.0000000000000000e+00  -2.2763864982910635e-08  -2.7578161271547900e-06  3.1925568022026403e-02  1.3001964030071026e-04  -2.4836670611885093e-02  -2.6258468782342168e-06  -5.4954305019403414e-05  -2.9968783004809713e-08  -1.3707073985502615e-03  -1.5082771584654604e-07  -6.5439069360016779e-07  2.8726803564191970e-03  -9.5032842594300505e-05  -1.5764538506744075e-01  6.5962163011441188e-01  -1.9540793413488700e-07  1.4657663194123699e-08  -6.2284052621757792e-08  -1.4364423698804330e-05  3.9723304830206334e-09  9.0288949157459797e-01  2.1245551853146614e-03  2.5009290093878059e-03  -3.6484265862506207e-06  -3.6603595822034279e-06  -8.9895229134226706e-02  -1.5013365668182517e-03  1.2184857414294091e-05  -2.5060437816008275e-07  9.2727307671773718e-03  6.8839323876059084e-09  -7.7290579558420322e-02  -2.1721022189771601e-04  1.0377416749245655e-03  2.1006314645172029e-03  -7.5085161245099062e-07  -2.1528683623304109e-04  -2.1476323711913808e-04  1.7172107641320916e-03  -3.6344972020681482e-03  -2.9215565547366348e-06  -1.3898397149796959e-05  -8.3769842089717328e-03  -1.1115510433939266e-05  7.4584574611488652e-07  8.8792196914438792e-01  1.0484387784516362e+00  0.0000000000000000e+00  1.6677095488189127e-02  1.5675925905236797e-06  4.7284752798976045e-04  -1.8631012557882236e-07  -3.2606700045979112e-09  1.0000000000000000e+00  1.3047852965969466e+00  -1.6457095498541657e-02  -2.7317533587302420e-02  4.4564992944136415e-04  -6.4008313149853304e-03  -9.4786723952382658e-07  3.3666421655284259e-02  1.1925777291316435e+00  5.1568270336537532e-06  -2.0854041481970931e-08  0.0000000000000000e+00  1.0000000000000000e+00  0.0000000000000000e+00  -2.8046211674338106e-04  -4.8653519576241084e-05  -1.0265933897277151e-08  0.0000000000000000e+00  1.0000000000000000e+00  -1.7067070764687105e-06  1.0000000000000000e+00  -1.5800913641594180e-01  -1.0957509640780112e-03  4.1790673114768959e-08  -5.7818498740141871e-08  -4.6641521490210869e-11  1.0725309681938669e-05  1.3492364240851614e-08  -1.7781354355746085e-08  4.7929064928900306e-07  -1.4486480959670817e-06  -9.5023045100202960e-04  -1.8843992285293265e-04  5.2752183939711685e-02  1.2685600065532567e-08  4.2700442300001282e-04  -2.0695001226057312e-07  -5.7476059817943947e-07  -9.6203122235653056e-04  8.5456079583490857e-02  -5.8191436943236396e-01  3.7002826937902938e-01  -1.1036192706441969e-01  2.2270114111291447e-03  -8.8023231247037186e-03  6.9151486936948902e-07  -1.7388718149849121e-03  -5.0334162575196711e-02  2.3511909438986383e-07  4.0178421611315847e-05  -2.0959777550444462e-05  1.3372160464312704e-02  1.1313335337770631e-08  1.3463503657846046e-07  2.2978840733373586e-07  3.9835930888547317e-04  -1.9528845221204770e-07  -1.2289997351813504e+00  7.2743983270968682e-01  3.8597788924274153e-06  -1.1705155967938650e-06  8.7917706374990702e-04  2.7292253782994489e-05  3.0946050746412271e-03  -2.7328078737571740e-04  -3.8601280458851013e-05  -3.1553965794333541e-07  5.7235221212805110e-05  -5.2898171329651382e-07  1.9453870191476117e-03  9.3931767987797250e-05  3.6849659636323012e-01  1.0790487316386847e-03  2.5297961114092904e-01  -1.9864633748503664e-08  -1.9972249439213423e-05  1.9998111896262806e-02  3.4989627826649183e-01  1.7053937251577872e-01  -2.6586016715664351e-02  -1.8669392105524896e+00  -7.2621602815172603e-01  -3.9144237052236193e-03  -3.4544181799166099e-08  -1.0374869643226230e+00  4.6990348616398501e-03  3.1176489661158953e-09  -5.3507094917273293e-10  -9.2151071147436769e-01  -6.5238979674764468e-07  1.4204260937267051e-04  4.5011403019287931e-08  -3.1728773960139973e-08  -7.2228426506886632e-06  -1.5251256176654506e-08  -9.0990006849028189e-05  -1.0617285638193010e+00  -1.0704699904958582e-04  1.6440198056656974e-06  2.1932675797031755e-05  -4.5772617740979198e-04  2.0005530159231654e-09  -7.1837040488686804e-02  5.1888183997929542e-02  1.3755560808195879e-04  0.0000000000000000e+00  4.2733761360111603e-09  -4.9434545058062240e-09  5.7469603369692398e-07  5.4495300335977773e-05  2.6237899300179920e-07  -3.7444203147429361e-01  -3.9419962034747670e-04  9.0777910277688081e-05  2.0732568888696319e-03  8.9473078238015095e-03  1.9556206742020795e-03  4.6293671490000632e-02  3.2748063876340164e-06  5.9562277103568170e-05  -8.9214712225618154e-01  1.6800016849394654e-06  -7.4540876554819765e-09  -9.3019196944812887e-06  -2.0661256950899029e-02  1.3093289443145697e-06  -6.3557952464295808e-01  -6.4261977711136699e-04  8.6754926165855497e-04  1.0101788927486233e-05  5.9237937779871827e-06  1.8082005241025610e-07  6.8306807510921143e-03  -5.7352319434427537e-08  -6.3390180837713506e-01  8.4250258233627192e-03  2.2298370572141878e-08  6.7811662256899622e-09  -3.1631591999358812e-03  1.8952017374907698e-06  -4.4715593065591404e-07  -2.5882436343507246e-04  -7.8813170958654435e-02  -4.4127824511976617e-02  -2.7038818791371875e-07  1.0000000000000000e+00  2.0311526142313560e-06  3.9901429558500540e-03  6.7256805438144870e-02  1.3181654987161080e-06  9.4169413840588266e-07  -6.3110804287924878e-03  1.4586200139581831e-01  -2.2625463999125846e-03  7.5948838046251002e-03  -1.2710120436871988e-03  5.2982046177150623e-06  4.6236453206568371e-04  7.2047050917815230e-04  -6.6600327015840899e-05  4.7560786039741636e-04  -1.0839247507447022e-08  -3.0432455279251703e-05  -1.1566295661317229e-05  1.6411309629464504e-03  -3.5330915265476526e-03  -3.3017165083097315e-02  2.3643262235617190e-05  -7.4686607224651418e-08  1.3009357682822681e-03  -3.4875285234893878e-03  -4.5989341641059203e-05  -2.8167541198280334e-02  -2.9264459185627089e-06  -2.8491878952336402e-02  9.2328256686691854e-02  9.1030552607031753e-07  -8.4178278200446755e-03  -1.5400804417470408e-07  4.7091274121058940e-07  -1.3482938863438932e-07  6.8192892164918214e-08  -7.4584447110604445e-08  -1.5091617209552619e-06  4.5595997080726409e-04  1.1175941019836208e-04  1.7628740488716826e-07  -1.0774557703877651e-05  3.1000785656196761e-03  -2.0990988125930968e-04  -2.5235156421533094e-06  -1.2513957952761630e+00  -1.2881384163751104e+00  -2.3094870456337566e+00  3.5290164353781212e-02  -1.0056470694010507e-01  8.6628124892788469e-02  -2.2654769629451006e-03  -2.4534053708599543e-01  -2.1444199114404465e-07  7.3487008453280112e-01  1.7094844274416016e-02  -5.0243319687027943e-07  3.0254060808660043e-07  7.5119952525234342e-08  1.4720503166579257e-01  -1.7834321857184384e-06  -1.7041162281344453e-02  1.9975858446039877e-05  -5.4706991933802232e-03  1.4698827386752780e-04  -4.3300883477829555e-01  1.0533465500792559e-04  3.3246935057796811e-01  -5.5866507372195656e-04  -1.1770373523698032e+00  4.4380864087931665e-06  -2.5243757656864954e-04  1.8344841319892313e-01  -2.4048659360075156e-01  -3.8550943084463496e-08  1.1644983526473404e-05  -3.9373145429047489e-06  0.0000000000000000e+00  1.5048339079431285e-07  -1.2225506839017033e+00  -1.4394618882905027e-09  -2.2222693864573761e-07  8.0576513617326888e-05  -1.9589971086215048e+00  1.0000000000000000e+00  8.8674618885033127e-03  1.9197186353549316e-03  -1.2735795217470015e-04  -9.0553687288751018e-04  -2.3457647435925230e-04  -2.7407730240354453e-02  1.4734480448859844e-01  1.3677067794912902e-02  8.4405176251606723e-05  3.4770919167478976e-09  0.0000000000000000e+00  2.2887288700390660e-07  -2.9243015022128472e-08  6.8582649318250524e-07  -8.5696829343727549e-03  1.2567168865825928e-05  -2.0165844331971288e-06  -4.5437384000668705e-05  -4.7964722524019101e-04  -2.2938418810940914e-04  6.6225081604289924e-04  -1.3557589604671930e-04  4.6627471983258708e-08  -2.9015266479006315e-02  -2.1238588947401560e+00  1.0000000000000000e+00  -2.3095313995948284e-07  7.6259539441417156e-08  -4.4529186257135994e-01  0.0000000000000000e+00  1.8402515219683927e-04  1.0000000000000000e+00  8.6985588324337658e-07  9.9999999999999989e-01  1.0000000000000000e+00  1.0000000000000000e+00  -1.1398759503799141e-01  6.9625206001686524e-04  9.3896757852975648e-07  6.3419241751215885e-04  -2.3538695800495922e-05  4.0290217544471395e-04  6.2828906869046235e-06  4.8712119696037927e-02  -6.2797554684890593e-08  0.0000000000000000e+00  0.0000000000000000e+00  -4.5701281265481802e-01  0.0000000000000000e+00  1.0648318530963474e-08  0.0000000000000000e+00  -1.9217199776363554e-02  -6.3997505929402800e-09  1.6013210264466428e-03  1.0000000000000000e+00  3.0442981875236326e-08  -1.7516805728032816e-05  -2.2071409505574499e-02  2.7131023939531174e-01  8.7511227941397785e-06  9.1001372077560454e-07  -1.8120313422393242e-07  -4.8256397711677363e-08  -4.4048343162849097e-08  -1.7886199136296269e-01  1.1028075856461593e-07  -1.4104774974456061e-08  1.2490578080261150e-09  -1.1340169904347089e-03  1.3607636621461641e-06  4.2054959291224346e-02  -6.1711628700741865e-08  1.1500878313591464e-07  5.1615064378617386e-05  2.0335217012760606e-07  -7.8460892131055453e-06  8.1324548430607266e-06  -1.0945768011003826e-06  1.8784486768319362e-03  -3.0886425519190741e-01  8.8717237915821101e-09  2.1809230321914114e-03  5.6405882602255126e-07  -1.2113441705374416e-02  -1.9974115096884522e-03  -5.9433869842570155e-03  2.2055513155046333e-04  3.4833207036537425e-09  -1.2448748572748257e-08  -2.2773523456546402e-03  8.1921576870202893e-09  2.8733485212808755e-08  -8.9506283604577552e-01  3.0222687607212809e-04  9.9027937413075500e-10  -9.1421249106142097e-07  -2.7997749700984320e-05  1.1675700086280076e-04  5.4840765584637356e-05  1.4228782418567042e-03  4.5688777771261523e-04  -4.3932429664229802e-04  -9.0038310402290979e-06  9.4993690884412441e-05  1.3879266106700647e-01  -1.3337240456907786e-02  -5.0578358550384724e-03  -2.8756681983789628e-01  5.7164717565966683e-01  2.0679787993865731e-01  -1.4891593396310738e-07  -2.0120017843585848e-03  -4.3030758647035253e-04  -1.2476045449539180e-08  8.8377701329727179e-02  -1.6675131980359552e-05  -1.9251151103837282e-03  -1.5299831279038395e-08  7.8299348951963661e-10  -8.5577071560929443e-09  -1.4297982631288257e-02  -2.6328866130515029e-05  -1.8622372563173413e-04  -1.8396704494877628e-04  1.4073206524764351e-02  3.4469577891013298e-01  -5.8035972142899828e-01  -1.2184031183949456e-03  4.3852165814764671e-01  -2.0424216719042657e-03  8.3977599744152008e-08  -3.0566318207950333e-09  -3.3750910650947097e-02  2.3136843338880639e-01  -3.6927509332891750e-01  -8.0733883975278611e-05  2.1813453303799360e-05  1.2022221567004559e-07  -2.4675756038172264e-01  -1.5111970835834474e-03  -7.8426088872114784e-04  1.0612703637607065e-03  6.4830398953016435e-07  1.4227683483238185e-07  1.1421794746276413e-05  -4.2529813836582330e-09  5.6865044937914289e-08  -4.6899474676694151e-07  2.6849519088187362e-04  5.5188751933291780e-01  -5.0372305357522906e-01  1.9232656621557692e-05  -4.2515079098246408e-05  7.9356730727111492e-07  1.9157398271763515e-08  -1.0443031812768823e-03  3.4013081344672852e-01  -4.4855949953106740e-05  -5.3610930904195702e-03  3.7355984981109508e-01  4.9329763124618268e-05  1.5933639341280990e-06  3.0544520356715964e-02  3.2518130479633492e-02  6.0628490166625859e-02  3.8477231111504065e-03  -4.5565867747205356e-04  -1.2156524365128157e-06  -1.6766788451704228e-06  -9.5071188877863979e-08  -4.2516051053202537e-03  -6.4176251799363698e-05  8.7176564949922025e-03  -6.2380985105183617e-01  1.2194352011880611e-09  -6.8819690376006744e-08  4.8787607762245249e-07  1.9154822469561997e-07  -3.1918725573066209e-04  -2.2093761572546593e-05  -4.0592586120313975e-08  6.3634537051586307e-04  -4.2153977483219195e-07  -1.4553064447281602e-05  5.6662833721199521e-05  -2.9200103882958347e-08  -3.0371771210819295e-04  2.1656751913258936e-07  1.0402060041374006e-03  -1.1074544533851685e-02  -9.9580969218332135e-02  -3.3776991838186776e-04  -1.5967755452367494e-01  1.9227817636445154e-07  -3.0418732792739025e-08  -2.2137645521931709e-01  1.5100488334542376e-08  -1.7373512464903682e-08  1.1578952668147226e-08  6.9278726222684564e-05  1.2038270438815766e-06  1.1251176578793888e-09  2.3393662597175242e-02  -1.3652239411570653e-02  4.6314235520617609e-03  4.1717270517714535e-09  -1.0998139439211595e-08  4.1363847977470605e-07  1.8543374804723845e-06  -6.8977141027403108e-05  4.7141914094129959e-04  -1.3468077190589081e-01  4.6166163210338987e-03  -1.2220804637308039e-03  -9.0307500734757087e-10  </DataArray> 
</PointData> 
</Piece>
</UnstructuredGrid>
</VTKFile>