<?xml version="1.0"?>
<VTKFile type="UnstructuredGrid"  version="0.1"  >
<UnstructuredGrid>
<Piece  NumberOfPoints="2063" NumberOfCells="3932">
<Points>
<DataArray  type="Float64"  NumberOfComponents="3"  format="ascii">0 1 0  0 0 0  2 0 0  2 1 0  1 0 0  1 1 0  0.5 0 0  0.5 1 0  0 0.5 0  2 0.5 0  1.5 1 0  1.5 0 0  0.75 0.5 0  1.5 0.5 0  0.375 0.375 0  1.125 0.625 0  0.28125 0.71875 0  2 0.25 0  1.75 0 0  2 0.75 0  1.75 1 0  1.25 0 0  1.017857142857143 0.3214285714285714 0  0.75 0 0  1.708333333333333 0.2916666666666667 0  0.5679347826086957 0.7214673913043479 0  0.875 0.75 0  1.305600649350649 0.2846996753246753 0  1.75 0.625 0  0.625 0.25 0  1.25 1 0  1.375 0.75 0  0.25 0 0  0 0.25 0  0 0.75 0  0.25 1 0  0.75 1 0  1.598214285714286 0.7946428571428572 0  0.875 0.1681547619047619 0  1.508244264625336 0.2143493347914263 0  0.537924619652453 0.5112261410426409 0  1.125 0.154265873015873 0  0.21875 0.21875 0  1.1875 0.8125 0  0.1796875 0.4140625 0  0.4375 0.1875 0  1.289794950204951 0.4943848506148524 0  0.9375 0.5625 0  1.8125 0.8125 0  1.869047619047619 0.375 0  0.306640625 0.541015625 0  0.1416015625 0.6081194196428571 0  0.375 0.8715277777777778 0  0.7878874375837291 0.3248062812081354 0  0.153125 0.846875 0  1.838541666666667 0.1614583333333334 0  1.673611111111111 0.4652777777777778 0  1.375 0 0  0.7131428669914515 0.8253214334957257 0  0.7206235893771994 0.6614203860924323 0  1.653859750753041 0.1350752024885296 0  1.171553649596502 0.3800337391363729 0  1.020833333333333 0.8333333333333334 0  0.4360525641032634 0.6330299904393442 0  1.508928571428571 0.6607142857142857 0  0.125 0 0  1.562047069667471 0.3588464594484652 0  1.066821025796166 0.4870369226115026 0  1.372434789129916 0.1501830428251819 0  1.397572001626963 0.3970706043732994 0  0.5715219737723877 0.8698933499126715 0  0.9042584128096922 0.4174908995079927 0  1.003472222222222 0.6944444444444444 0  1.272705049795049 0.6420899004099017 0  1.3125 0.875 0  0.5245753803475469 0.3616507606950939 0  0.7293202423318081 0.1459101211659041 0  1.469246031746032 0.8591269841269842 0  0.875 1 0  0.5625 0.125 0  1.85444568452381 0.5213913690476191 0  1.875 0.6875 0  0 0.125 0  1.392655346118954 0.5811272954775059 0  0.6619703121556711 0.3842420574783494 0  1.125 1 0  0.375 0 0  0.3167613636363636 0.1235795454545455 0  2 0.875 0  1.875 1 0  1.605229591836735 0.5747590702947846 0  1.699083011583012 0.8788610038610039 0  0.9982225529100529 0.1292162698412699 0  1.375 1 0  0.625 1 0  1.625 0 0  1.875 0 0  0.625 0 0  0.375 1 0  0 0.625 0  2 0.375 0  0 0.375 0  1.125 0 0  0.875 0 0  0.125 1 0  0 0.875 0  2 0.125 0  0.8347154254703812 0.875 0  2 0.625 0  1.625 1 0  1.249055982776079 0.1727441706461531 0  0.4001949725348535 0.7509141330152288 0  0.1076766304347826 0.3125 0  0.1206266972802661 0.7287876397828053 0  0.839045334706977 0.6338484449023256 0  0.1026785714285714 0.1875 0  0.1875 0.1025191326530612 0  0.647087651085914 0.56465454646987 0  0.4175806492347585 0.4896150099790182 0  1.124723442875088 0.272006546354114 0  0.9025364992112173 0.3002552609864784 0  1.710459183673469 0.7423469387755102 0  0.2611111111111111 0.8857638888888889 0  1.177286695349859 0.521702157920197 0  0.3359375 0.2578125 0  0.267578125 0.345703125 0  1.107291666666667 0.7350694444444444 0  1.615946089418426 0.6860954641972395 0  1.819940476190476 0.2730654761904763 0  1.75830270586982 0.3919383189517417 0  1.60542025246854 0.2604314953837324 0  1.47529437030095 0.1082834354672917 0  1.407616811984598 0.2515245892897627 0  0.5417644749872034 0.6179405079134659 0  1.292605834233751 0.3891584395767265 0  1.571560171687723 0.9025449465500486 0  0.4948260752512502 0.7974906259153529 0  0.9397899849485198 0.9078383314518984 0  0.8133000292679321 0.08407738095238092 0  1.476686507936508 0.7574404761904762 0  0.1110425383368033 0.5013559892496797 0  0.2112130102898548 0.5094901147101452 0  0.29931640625 0.44091796875 0  1.1875 0.07713293650793651 0  0.4106128246753247 0.0922957251082251 0  1.90625 0.78125 0  1.890625 0.890625 0  0.53125 0.21875 0  0.43359375 0.2903645833333333 0  1.21875 0.90625 0  1.111378205128205 0.8926282051282051 0  1.269897475102475 0.7471924253074262 0  1.029513888888889 0.5989583333333333 0  0.8522579878681762 0.5057260363954713 0  0.4735106227127113 0.9007265262494941 0  0.9590087510503688 0.2195632990669812 0  0.6875 0.9219597779820848 0  1.297061602521838 0.08663184834406668 0  0.8057486862661835 0.4203625921047867 0  1.793269447512567 0.9105428610875859 0  1.192060400311378 0.6922481068149043 0  1.754252759835165 0.5248380520595106 0  0.09102701677793967 0.09104872753828278 0  0.7253449499868028 0.2462465282608479 0  1.484694639796352 0.3053830929854885 0  1.739818341109988 0.1929433411099884 0  1.742395305945888 0.09633901341431061 0  1.5625 0.0712199154988299 0  1.92926747311828 0.1875 0  1.90752469027583 0.09218971500852076 0  1.40768629618205 0.4894347989095132 0  0.08806450569358179 0.4027157738095238 0  1.912105021337907 0.2781978201831695 0  1.213814955489757 0.2975491648102477 0  0.2318947826372472 0.7975197826372472 0  0.06766581632653063 0.8125 0  1.93452380952381 0.4375 0  0.6247824869223918 0.4719944419277 0  1.0625 0.06548008473267392 0  0.3365452571729279 0.6359685188818469 0  0.2379420733423327 0.6299633247212709 0  0.6875 0.06556243656869358 0  0.3236766744217268 0.7978685432210111 0  0.8310171284078489 0.2462432983132972 0  1.934836256037958 0.5625 0  0.9161950191268687 0.08407738095238093 0  0.6255648715181676 0.7943309019754321 0  0.7969452222935728 0.7938361597008705 0  1.049114351431065 0.2049887101224473 0  0.1836020902149457 0.931618241059888 0  1.587837819422641 0.4878002082243154 0  1.656458741565034 0.3715695260907847 0  0.9746733823051021 0.4776637837933646 0  0 0.9375 0  0.0625 1 0  0.08488520408163265 0.90625 0  0.625108507899049 0.6519433794169625 0  0.9179752099882805 0.6730563883756762 0  0.4799911838279058 0.7100598895640633 0  1.79655612244898 0.7264030612244898 0  1.028270112243967 0.4083923893159024 0  0.9066957593018397 0.8292061892030722 0  1.358770484011389 0.6629439624162315 0  1.4375 1 0  1.395391088162172 0.9116794559189138 0  1.482797859881745 0.3908170231280859 0  0.6455330629466264 0.1384632183556422 0  1.029395089402758 0.9190389695086781 0  1.836666296419157 0.607917407161686 0  0.4535978296068884 0.4110171803721298 0  0.06550603987731521 0.5721451437613042 0  0.9569373077851933 0.7631562395310373 0  1.583993153355993 0.1801147415980886 0  0.7937649993393823 0.707466203500723 0  1.824565284334692 0.07855596330344469 0  1.219218268800778 0.4490550565788002 0  1.09246753402758 0.3566001189940414 0  0.7281178214686024 0.5794009834944619 0  0.6932515372564962 0.7422923192533981 0  0.1868917396185889 0.3326442902239 0  1.381389496819767 0.8313197484098837 0  0.3251953125 0.9357638888888888 0  1.822983647514895 0.4443292349237342 0  1.522805799535004 0.579338169867103 0  0.1996769442187233 0.7035837018142242 0  0.07584180090947087 0.6588459491136841 0  1.179616205578152 0.2132648206592699 0  0.4805199872536258 0.5667179735898049 0  0.3858701449073073 0.5665964231522445 0  1.098089669722258 0.8141404887505225 0  1.687233248862278 0.572163739146816 0  1.551166608520145 0.7312353751304908 0  0.4922995523139784 0.0819752238430108 0  2 0.9375 0  0.768368512152681 0.921241957327667 0  1.247199476430077 0.5642976316950705 0  1.6875 0 0  0.6774039677538598 0.307779775489877 0  0.6000141078244342 0.3319476482371208 0  1.434261329029022 0.6895619774012085 0  1.66493947909829 0.2113935814263256 0  1.443093262894167 0.1764378413598336 0  1.402006909638446 0.07557472224679147 0  1.340345392925933 0.2181010093132612 0  0.5554578582348065 0.4342779583340344 0  1.107361224480081 0.551189700840597 0  1.138385583366683 0.4523261983614127 0  0.8533445989779486 0.3620185773637825 0  0.9515078554899268 0.3581664525345664 0  0.5386270525248704 0.9365222029658709 0  0.7385910931871089 0.3834681382026311 0  0.802177695014711 0.1569173507111856 0  1.678649386507641 0.6460608856108409 0  1.321228366282072 0.5614685347415731 0  1.41359183689185 0.3250565808516193 0  0.6954048733751652 0.4501669473459832 0  0.1485611191567167 0.2482653329281137 0  1.3469535863885 0.4493494260445651 0  1.465721499292709 0.9323462488904651 0  0.7981542850547552 0.555986631721179 0  1.538905404408536 0.8372354119916759 0  0.5402362619913743 0.2907759906818941 0  1.544445456917978 0.4294227313618058 0  1.64210730014833 0.927239663021229 0  0.6436701064529 0.8643871094205939 0  1.458142277220564 0.6101822863463986 0  0.4380500880834657 0.8395863885666418 0  0.609775472096462 0.930213850449219 0  0.2582723336415264 0.07535405277673025 0  0.2464725418959271 0.1492463151953984 0  0.3026740927503065 0.1940782140226835 0  0.6136302244057281 0.07244011220286403 0  1.037390873015873 0.760734126984127 0  1.064236111111111 0.6597222222222221 0  0.4095428818227003 0.9357638888888888 0  0.5950820785655451 0.1868339607172275 0  1.261352524897525 0.8210449502049508 0  1.28125 0.9375 0  0.5 0.15625 0  1.9375 0.71875 0  1.927210589804446 0.635671179608893 0  1.9375 1 0  1.626447537183655 0.8588601831331419 0  1.669722968375728 0.8015190092763261 0  1.741107994028916 0.8070548843809463 0  1.204001864890377 0.6215380952542296 0  1.677831627302534 0.06931873288731356 0  0.3125 0 0  1.869908299928041 0.2232403652524313 0  1.348462648995713 0.3483571605131688 0  0.3786180084120425 0.1527303780499803 0  0.3487561798996458 0.06314489251279025 0  0.2360060703178168 0.2849796364162243 0  1.612623216848136 0.4240614066492297 0  0.5625 0 0  1.44829775698497 0.5431703903381939 0  0.6734193446913824 0.2012552484100826 0  1.321327673059477 0.790563647738753 0  0.9661399202258864 0.6245602277896942 0  1.807323292851816 0.3419398170341963 0  0.9999257554414013 0.5392912151029183 0  1.741351399185104 0.457933324954483 0  1.1875 1 0  1.939453125 0.841796875 0  0.8125 1 0  1.15625 0.9414854812476081 0  1.6875 1 0  1.732215719876833 0.9362048860500158 0  0.3490171788168188 0.7041577754578493 0  0.87486661
[...]
<PointData  Scalars="f_342"> 
<DataArray  type="Float64"  Name="f_342"  format="ascii">0.0000000000000000e+00  0.0000000000000000e+00  1.0000000000000000e+00  1.0000000000000000e+00  1.3522975698054415e-44  1.9450157798042996e-44  2.3250740428110867e-66  3.2072059031190996e-66  0.0000000000000000e+00  1.0000000000000000e+00  1.1952401706976834e-22  1.3614533599691460e-22  1.8414520679999629e-55  2.6506143611363377e-22  9.7432613219544213e-72  -1.2920473996415050e-39  1.0500434391375252e-75  1.0000000000000000e+00  1.0045859538018162e-11  1.0000000000000000e+00  1.1482814610063608e-11  1.2733718986636243e-33  4.0375114675313213e-44  2.0505498213443618e-55  1.4605606093371595e-13  3.5136285190328556e-63  3.8190761035037366e-50  3.9972972160770884e-31  1.9914343995950898e-11  8.6680592941437098e-61  1.4912758500077559e-33  1.3538862075234119e-29  3.1720077594041462e-77  0.0000000000000000e+00  0.0000000000000000e+00  4.1665861275182294e-77  2.5264587224929370e-55  1.4628288573491621e-18  5.5554545972292161e-50  3.0007484205528958e-22  8.2908233444136218e-65  4.9585761073998429e-39  1.8226100599248027e-78  1.0024091937683044e-36  2.1536968270965145e-80  4.4448520083634961e-69  5.7380539675504254e-32  1.5407480633612721e-47  6.4657071202042818e-09  8.6421006714466593e-07  -3.3370886905921598e-75  5.6576927263329860e-82  9.7116751904376679e-72  1.0418700345773133e-53  2.7439321113772679e-81  6.0928634044937968e-08  4.0789841997593326e-15  4.4283159487025404e-28  7.9878913140815840e-57  1.0842118426704031e-56  5.9825058915602316e-16  5.5257821897045545e-37  1.8108560874678000e-43  4.0331671013046746e-69  3.3052154749529633e-22  1.0357565573074755e-82  6.6655146395182775e-20  1.3670575591950922e-41  2.8880371929517425e-28  -2.5869385161582218e-27  -1.4938516401491030e-63  9.6699272512785517e-49  2.7079279169819883e-44  1.3043758338819956e-32  3.3571226921226844e-31  2.8117433862266556e-65  1.0175897109310767e-56  6.3065646646628921e-24  6.7357448422748317e-50  1.1293808033277247e-63  1.6403533532342126e-07  1.1384442097509503e-06  0.0000000000000000e+00  2.4771620923593633e-27  -1.2286623563706186e-59  5.2184261455229905e-39  8.1750566189951519e-72  2.0650022151294836e-74  1.0000000000000000e+00  3.6940475359185597e-06  2.5607163070279265e-18  4.8611257205160004e-14  1.1183655877642971e-44  4.8846576282732257e-28  7.9322818347577643e-61  3.2290852424304504e-17  2.8402572918717522e-06  7.2589672194458238e-61  1.0857731900393227e-71  0.0000000000000000e+00  1.0000000000000000e+00  0.0000000000000000e+00  5.3071237249467673e-39  6.2262291448567115e-50  1.2895082219613336e-82  0.0000000000000000e+00  1.0000000000000000e+00  1.0740754193210050e-51  1.0000000000000000e+00  4.0222043726649149e-17  1.1715893724097795e-33  2.4674754826328143e-70  1.2412143350971573e-83  1.6049527263509117e-82  5.0500630467523239e-52  8.3411595824140409e-84  6.1471906604400811e-80  6.6374451897336781e-60  4.6950371326268925e-70  5.6272911738094639e-39  1.0334489245064207e-48  1.4388283887408928e-13  6.6267519118326029e-77  8.9908575752457633e-37  1.1654731962844961e-73  1.9184942584514090e-76  8.4427520539292402e-40  1.3180769151604865e-17  1.0146512274074996e-08  2.7378045132772721e-11  5.4609125265368880e-18  8.2884706450663831e-24  1.2240949463768176e-26  1.6459160777145359e-64  9.2048934332542580e-32  1.4318061016194816e-19  1.7754802898007250e-66  6.3029247592874394e-47  1.0542546049499233e-52  1.0448677505852657e-23  1.4033535278547170e-83  4.3569753317329455e-79  3.5664291071739786e-75  2.2469627249905681e-36  3.0310082623528761e-70  3.5101548428194694e-04  1.3912334408138015e-05  5.6773490371143622e-65  3.5559385732508102e-69  7.4267050891594610e-35  1.6345457358611804e-39  9.4767773500703747e-33  2.8692401630581817e-43  5.7346271165175044e-51  2.3940429323870922e-67  2.8983474320882125e-46  5.4333315079426605e-58  1.3248855991727859e-31  3.9023978469091381e-53  8.3787714550557166e-10  4.6436273148070374e-36  1.5109908567609015e-11  3.8017003367781952e-84  2.4854661812521141e-56  2.4759125582875011e-23  3.0275292359421658e-12  5.5762751285551303e-12  6.0971726862334828e-20  2.6113584332616813e-04  8.6899491434826775e-05  9.0711293646056009e-27  2.7643726482096290e-84  1.4279811979353547e-04  7.4458433748457730e-35  7.6311145562342765e-78  4.4684863946906302e-85  1.1268165664057206e-03  4.6939579871084014e-61  8.3929509679820436e-42  1.9153366310587993e-73  9.7180648330605097e-78  3.5906887950434248e-58  7.6109273127555011e-74  7.6390602924555293e-52  1.3236559707750751e-03  3.3131320281984141e-48  8.6305023403739599e-61  3.1123295845024486e-53  2.4805168338501479e-42  4.8388989081542801e-80  8.8095113173795041e-19  9.0443736334953520e-16  1.0030987498151300e-45  0.0000000000000000e+00  2.3012295245298787e-85  2.0644878632372854e-84  6.6978732175536805e-61  4.5182608727617224e-48  4.8321422748558635e-67  1.1727041407913820e-09  2.9856688471168349e-43  1.5962590981372499e-48  9.5690612282088563e-29  2.3599294216520770e-25  8.2974782850011740e-28  2.2857752347919732e-23  1.1128477228756524e-60  4.8743434361336538e-43  6.6208370664062884e-08  2.6023833754822116e-68  2.4335768411132272e-85  -4.8021839713269529e-47  5.6614396837639624e-19  1.6468963251995785e-53  1.8957310322750256e-08  3.4667944837441385e-35  2.0617603304162836e-40  1.6094259690349603e-56  8.0005492629318088e-58  2.6473138404952322e-80  7.3083688055644045e-28  7.1476142380607256e-74  1.6682866243120063e-08  9.2750492998878978e-22  1.1008839316723915e-78  7.9117763388908277e-85  5.1724435088287913e-37  3.0029827795376088e-67  2.3320791549588081e-71  4.0351563206813635e-40  -2.1247607862032806e-14  7.2051620203811025e-20  1.2992368305083802e-66  1.0000000000000000e+00  1.7728253004336550e-54  6.9055565845803274e-34  2.0631999521701960e-14  1.7015205912480468e-58  2.4612765858884065e-62  1.6878782441528178e-25  1.7563033322132123e-15  3.2523164863343799e-25  3.9005782246388514e-27  1.2740248137025460e-29  5.0806575409248208e-64  7.6888610734938083e-40  1.1450518631886534e-38  1.3877410729021787e-50  1.2999841215114729e-46  7.6204046416806379e-65  -1.4759561392566482e-56  2.9371925598291496e-53  3.9006193804265883e-15  1.6930440837754557e-30  2.0498363504353548e-26  7.8813793789950842e-58  8.2074243849729711e-82  1.2361438005631834e-29  2.9842831570517494e-24  7.9118816519779681e-54  1.7567034833665738e-22  1.5114476046448594e-64  6.7889701253552139e-21  5.1687811567306642e-17  4.1671308043091480e-60  1.4068360505868970e-24  4.3977749940472554e-69  1.8766480111787395e-61  1.2599779730736265e-77  3.2437756091182067e-77  6.5466415556661752e-75  9.1420858086859075e-62  5.4922042495752142e-43  6.9619251942802736e-42  3.9619690018257585e-70  2.7642007921781827e-62  5.4406563620083615e-33  3.6972940167795270e-32  2.3374677950355574e-66  1.6471440365751042e-03  7.9829857013434649e-05  1.7329193351232231e-03  1.4907903423618261e-17  3.2352946282952733e-15  5.2698530305502421e-12  1.4129754470551346e-35  7.7054670216791392e-15  1.5660047713184800e-74  1.2617307073611186e-06  2.7331935358856362e-29  9.6540309031428527e-72  4.7334294823734997e-73  7.5478279674272272e-78  1.0784694876979668e-18  1.1839549718804508e-63  7.0771778781549339e-25  8.9086935004949179e-59  1.8707935048778845e-30  1.0548930606348010e-46  3.6464716446250398e-09  1.6504641333507986e-44  4.4189965424118385e-12  2.7924783175892997e-36  2.0281128866048025e-03  1.2261056890531374e-52  9.0620030209447206e-38  1.9021467689630302e-14  1.2678916115863995e-12  8.9740371718174293e-73  7.3552380149537452e-50  3.3037956122440955e-54  0.0000000000000000e+00  2.6881460651304283e-67  7.9155716809050454e-04  7.6411512139225175e-81  1.1515837932409967e-63  4.7192493170431090e-49  1.2428721113786601e-03  1.0000000000000000e+00  3.6193448179969839e-21  5.2357588029176765e-34  1.1066705954266710e-44  7.7838672155052807e-42  2.0210950630615757e-47  1.2016711068032037e-19  2.3162046514450538e-16  6.5156116343556291e-21  1.3883991962986212e-50  1.9988407599220279e-85  0.0000000000000000e+00  4.3400596590704209e-69  6.0821868237734487e-86  5.0534168328688317e-73  2.8021630189317094e-16  1.1945485114069111e-55  1.6767509627426690e-60  3.4590251027304091e-48  4.4346390214200457e-39  4.6565813954778367e-31  2.3248225739480552e-36  1.0193624758598740e-41  6.1297935922635205e-85  -1.5984207276101492e-10  1.7266881367368609e-03  1.6941755034709784e-63  2.0867426964142065e-74  5.4482018074659296e-09  0.0000000000000000e+00  2.6353415061668998e-47  1.0000000000000000e+00  5.3929910914377273e-58  1.0000000000000000e+00  1.0000000000000000e+00  1.0000000000000000e+00  6.4138942585168015e-20  8.2787495617681492e-31  4.3194988700130251e-58  2.5737027709679710e-36  1.1274860732813721e-52  9.0103020104573586e-42  3.8462014356614754e-47  6.9700173845856898e-20  5.5061764314651250e-80  0.0000000000000000e+00  0.0000000000000000e+00  6.0678953673688795e-09  0.0000000000000000e+00  7.3660079155635928e-80  0.0000000000000000e+00  2.2994145478074682e-25  6.3885350416545497e-69  8.3631767569993487e-31  1.0000000000000000e+00  1.0000000000000000e+00  1.6699276665690550e-85  2.7346812987096814e-58  1.3394350518934878e-24  8.5064470394171493e-13  1.9611990770135068e-54  7.1635798891294921e-71  6.9844592913635979e-72  1.4518113315529452e-79  1.0262245688356963e-69  3.0019400846236842e-07  1.5678163240133323e-77  5.8132814625359538e-82  1.9813368063236576e-85  3.0544781842280624e-31  6.2458679998424582e-68  2.6670286309997374e-16  1.1277523290884489e-71  2.8048823820626858e-71  3.4395265602973193e-46  2.9599182512004459e-64  1.3695082889254666e-50  3.6636586044427360e-62  9.1225252264314846e-59  2.2509819871263791e-34  -1.7562538563639749e-08  3.5557413488180053e-82  1.5284387502244733e-29  1.6251404959036756e-67  1.6570603422720250e-21  6.2334663585030892e-33  5.5832268267276836e-26  4.8724993713426863e-44  4.1790638890322450e-80  2.6705674223363240e-82  2.1107666232567597e-35  5.5709520001005267e-86  6.5016466769287357e-82  1.0835907431773952e-03  1.1239594543460114e-40  3.0889347751413959e-62  7.1703757142510438e-41  2.7226758755098049e-51  3.6324575836869555e-54  5.9464264631067984e-40  1.2219245196413469e-41  3.1737962287442823e-38  7.5795798734787412e-62  3.9436596849527506e-46  3.8117443811691312e-10  1.6614954938787915e-18  1.7884306042573312e-29  1.3738592353941617e-10  4.1015175034034123e-06  1.2440279068668698e-11  3.5278771872470924e-55  3.3043154733042042e-34  2.1673010511434446e-37  2.3830627957341040e-81  2.0848022326982833e-17  8.2326484856818737e-51  3.1140467451364213e-29  1.5647409394628286e-79  2.0874813066270529e-76  2.4801763408882002e-74  4.5448714709678779e-24  2.4526239823992598e-55  5.1282387014259243e-46  2.7071995737421421e-34  1.4654032394010140e-28  2.6076575674031575e-11  8.5692585785306081e-10  1.3735581838107311e-33  1.0954780704853844e-06  3.4909061951884657e-17  2.5479879075137959e-76  1.2259029993292076e-26  1.5408146334517741e-75  6.6728785512536279e-20  2.1543475970852991e-77  1.4177349746067257e-76  1.1759350678377646e-11  7.3768247866812900e-14  1.1349432796901182e-48  5.2851412116730126e-56  5.6603558085381745e-14  3.2105787931972340e-34  1.7671048616690931e-39  2.8381950987030084e-38  6.3077953461032619e-74  2.4386127958583594e-75  4.9015379940007934e-54  8.6517381683522111e-86  1.6416538076791399e-82  4.6730844788631740e-65  4.1082625054452126e-38  7.0407424470449551e-06  1.9558020370998060e-08  1.1464649206595044e-44  7.8470218235091055e-46  3.5702710241927166e-68  4.7225451885464204e-80  4.3208808399662092e-26  1.4251985099957257e-10  9.5036248506539218e-79  2.0277603232258103e-41  1.1156450102574344e-30  1.1880873736922995e-05  4.0262555506226850e-42  3.3848150744643616e-56  1.4497807086880617e-18  7.0774706854267877e-22  5.6233723433831995e-20  1.4823811483572726e-24  1.9030644087064807e-27  2.6983019111903200e-52  1.3064210868426283e-64  9.5733895746700984e-67  1.4101249506285658e-20  5.5156105167260873e-49  7.6372551448971069e-67  2.2368272634170192e-09  5.4006924538847207e-68  8.7266002129336318e-69  3.3931549220262853e-65  9.6148491406008927e-66  1.1727086264508692e-31  4.3769665120270412e-54  7.0964772368697779e-42  3.1340746428998749e-66  3.4297594120299475e-52  2.4492386961239705e-51  8.1127283646908703e-81  5.6732806381810646e-29  1.3359916009463873e-72  2.6317653561224235e-23  4.4592490806063264e-20  3.5538347314463219e-14  1.7702106689566652e-39  8.6589400201844512e-83  1.1090191948139703e-83  4.1845097456903849e-09  1.5561427736776453e-58  4.8000222394447282e-86  1.7285554810913486e-13  1.2429031555653191e-78  2.9722224002163575e-76  7.5213353647615945e-86  2.0617575639497564e-86  3.5930745067570345e-51  3.2712682241990831e-53  1.5022888871790882e-84  6.0755764458736494e-23  1.9906498242603174e-23  5.8569555192524777e-32  4.4647949921038093e-82  2.0142508372818004e-73  3.1555159429883468e-71  2.6598715546289390e-63  4.2850064225990460e-40  4.9925765678426037e-15  1.4853232198596285e-29  2.8704895687693353e-83  1.3502719190181276e-58  2.9703428048170864e-56  1.1068940283625366e-75  2.8410610066336965e-73  -1.3639139855421255e-69  1.4854435288775325e-37  4.7774723105567746e-13  6.5267484650263668e-14  1.4344928765342284e-59  2.6368218220712808e-56  1.1793336363241671e-75  2.2440829912259094e-69  2.1627351574381765e-10  3.8022783001410940e-79  6.5449578533805348e-38  2.4767981648838172e-84  -4.3392270467266131e-63  5.2100537769535658e-41  4.6403319842860963e-44  5.9546206801108686e-71  1.2415665408846019e-68  7.8473376661467417e-16  1.1650986332218422e-05  -1.6006596827541360e-02  -2.8744200010527591e-35  5.4009803367279443e-33  8.2499464589406553e-65  4.4593751276914522e-63  4.4014163191745725e-36  1.1345656267068853e-17  1.5007865474405554e-44  2.8934630892209653e-12  -3.3798282261565172e-49  1.5975588315209237e-46  6.1879139831073188e-26  1.6259186639615144e-02  -1.5390876415367119e-02  -6.1300863231305711e-49  2.5214508978451960e-10  4.4865540240395401e-26  9.6532805939879917e-06  2.0800796671015184e-06  1.5507010705740854e-57  9.5685938606117693e-54  4.8048072510327045e-84  1.5775985567610652e-86  7.5597502841987073e-74  7.5535799783933701e-76  1.1401308884461418e-03  3.2067954614108350e-70  -8.3261376290081403e-48  -1.9745385812725152e-14  -5.6184243999127481e-56  -1.5317348490454784e-86  1.1572883539118589e-30  4.0170396242079077e-22  -2.0443774859505767e-18  5.3387138607680781e-86  -4.9798826549793691e-77  -2.4074538292053864e-25  3.5522873811456789e-07  -1.4706183666459560e-78  -3.2028907765067187e-63  2.0949021179862731e-37  2.7901822324143702e-80  1.4700377484283862e-67  1.4958199179784858e-44  -2.1055963193119981e-86  2.0629870705812458e-72  4.9288173501210600e-03  9.1229803958223950e-03  -1.6068160950731436e-02  6.0552050992185560e-25  3.7315248494724569e-22  5.6503937436877580e-22  2.3435683027979939e-06  2.4569352947469170e-52  4.1073657420249646e-32  2.0582606930870357e-35  -1.1568528814181740e-46  2.4676368464930967e-49  2.0138318054083162e-50  9.4445145368037971e-49  3.1503692091138618e-47  5.0330445572640823e-82  -8.5555894548892774e-80  1.3486118755205360e-10  5.9553720327833850e-82  8.6176321596627053e-28  -1.8513650019304002e-24  -8.6471333221545053e-28  1.2871154570300648e-61  1.8765702527005253e-62  -2.6844090438102549e-60  4.5072815448188393e-76  1.3196630945141416e-05  -1.0968953512713410e-33  8.3946756016410040e-37  9.7554902987992648e-82  1.0942955939296047e-47  1.3227978312776038e-47  1.1387843456352134e-43  4.7652580428213677e-26  1.5337161059313556e-86  2.6036532702975556e-69  1.6782717728284043e-32  4.6222831259270203e-45  6.7527940097762179e-43  2.2681914598591297e-45  7.5337264639043791e-52  1.0589866574719858e-46  4.4620560010910515e-07  1.2570873092830233e-05  1.1996876225751965e-59  -1.2105784536442891e-02  3.9119527388122885e-75  -2.4738435822493254e-39  4.5791183746081669e-81  1.0666971872306682e-25  3.1667419469777539e-29  2.4530915136053853e-57  -7.9251420382170517e-58  2.4023384399694467e-60  1.0275780959617575e-14  3.1803781173594650e-43  5.2796087280512129e-43  2.0818434928914705e-60  4.3550067855171212e-48  3.1763151438887737e-05  3.1896923225098787e-02  6.8912924415262471e-19  7.5900505490820728e-61  6.0393599508363499e-40  8.3889077615710094e-55  2.1097677547266488e-69  9.9463383102741959e-16  -1.3321880688939400e-54  2.1626777168270036e-52  -8.7280911585545142e-56  1.7221182636552176e-40  3.2225866807986801e-02  1.8662233575101071e-29  3.9367488417618365e-17  -5.7525785370455584e-21  4.4006209401164702e-68  1.5507720585188112e-62  7.0296694637376951e-67  3.1889879379533491e-02  3.0929934971846422e-02  2.6626857298493518e-38  3.1367742287369216e-02  1.4909487227754187e-08  4.5442156969265733e-22  6.3504371722276351e-49  1.0641954182544072e-49  9.6428233705879730e-23  -5.2781953114431496e-53  5.3434809737658508e-74  -2.3102901552277555e-72  -2.3702276281958674e-10  1.5331191574081119e-44  -2.1103723197978071e-42  7.4007334567788114e-12  3.6423891685707202e-08  1.0229500413090955e-77  5.9275980653794289e-43  4.7151509219436722e-84  -8.9429548997521455e-87  1.4107760524700480e-46  7.2193915943360922e-16  2.5000636004279471e-73  1.6801916290269755e-86  5.5974972488837327e-17  2.0651754931044249e-17  3.7248914498912348e-34  4.8075069658558642e-58  5.1429194796791794e-21  2.3273144694603693e-27  1.4107282688811049e-69  4.5166583554994223e-67  6.8323607900346008e-70  1.5122284620416864e-53  1.5013298721563382e-52  3.2133363136330786e-51  2.7423023526023249e-62  1.5505585316494110e-78  -2.6167379174665889e-42  9.8558503101631320e-41  2.8364660053760526e-50  3.0400930180524932e-82  1.6766896684219955e-36  1.6691360628510052e-18  5.0888971267151788e-37  8.7437233076021236e-16  6.2031844954850146e-72  2.5462503168271414e-34  2.3905991226779812e-28  2.0968494150653599e-23  1.3837687876392424e-21  3.6978633273585811e-65  7.6096929373121307e-58  -4.9398353152817054e-60  3.5055870461718139e-49  -2.2890418608884001e-50  4.9802883588197608e-29  1.0093657962889588e-04  3.9285347742544879e-31  5.5332144279508304e-66  4.5754452991818537e-16  4.4548439339784270e-25  7.2247255521986252e-55  1.5944519952859741e-87  6.4301587884738720e-54  2.4731144126209789e-84  2.2587621356244608e-31  1.6567149376976629e-72  3.5170345662327112e-62  3.6219582372514810e-62  4.7299211305360079e-63  -1.5752326546756709e-62  3.1260671235910936e-59  1.8110381539957712e-58  1.3347067687052646e-10  1.6313873826638573e-67  6.7225157699540547e-37  5.4706894960996431e-36  9.8587540854980801e-34  1.0919446791641608e-49  2.5426870244599946e-04  7.7859261806030759e-64  4.4694646341266098e-17  1.0728095210167436e-72  1.2789466744941342e-40  5.4350973411687497e-26  2.9901330280722141e-81  1.1156943950211597e-71  9.6008635138723095e-62  1.3054215099095491e-10  1.4507532459487884e-07  2.3520295879429125e-77  5.6400521369999643e-13  2.3674389253681362e-12  8.7400880533530032e-84  8.8393804711947516e-45  5.2959280230154330e-48  1.8179598007030538e-08  5.3242819903686000e-25  4.5183580588974805e-24  2.7832249429896857e-70  1.8004348260523644e-15  3.0916606248495336e-15  1.7798660242763336e-71  1.0836373261043502e-21  9.0879470618710811e-20  1.6398111200577719e-18  4.0437044530706469e-34  2.9377042933038034e-18  1.1139343790939389e-56  1.7975594890841552e-58  1.0035709244984016e-56  3.7634862235545428e-02  -4.1049268469441289e-65  5.2798705546730170e-66  1.2659000866471210e-43  1.4678320389991064e-18  -2.5368091329977052e-14  1.0717122814910212e-73  1.8902644975431899e-33  1.2866751064935795e-34  1.8366455884926704e-65  2.4509816611473482e-80  2.0466823209856686e-06  7.8673281684270896e-28  9.4996106886259680e-35  2.0656261562356169e-75  5.5026365755332237e-55  4.4315886527487548e-60  7.7625568944712798e-10  6.7797092129164370e-60  6.4153377486285736e-64  1.0403914045719782e-86  1.2047198141641715e-71  2.2378393210692912e-53  5.5320276104004777e-09  1.1343269462921424e-42  5.4156305827025616e-41  1.0679903774866085e-49  3.7421765053057254e-33  8.5368302815512425e-78  5.4513238386524595e-56  1.6629280407380925e-50  2.026677427052