<?xml version="1.0"?>
<VTKFile type="UnstructuredGrid"  version="0.1"  >
<UnstructuredGrid>
<Piece  NumberOfPoints="12914" NumberOfCells="24474">
<Points>
<DataArray  type="Float64"  NumberOfComponents="3"  format="ascii">0 1 0  0 0 0  2 0 0  2 1 0  1 0 0  1 1 0  0.5 0 0  0.5 1 0  0 0.5 0  2 0.5 0  1.5 1 0  1.5 0 0  0.75 0.5 0  1.5 0.5 0  0.375 0.375 0  1.125 0.625 0  0.28125 0.71875 0  2 0.25 0  1.75 0 0  2 0.75 0  1.75 1 0  1.25 0 0  1.017857142857143 0.3214285714285714 0  0.75 0 0  1.708333333333333 0.2916666666666667 0  0.5679347826086957 0.7214673913043479 0  0.875 0.75 0  1.305600649350649 0.2846996753246753 0  1.75 0.625 0  0.625 0.25 0  1.25 1 0  1.375 0.75 0  0.25 0 0  0 0.25 0  0 0.75 0  0.25 1 0  0.75 1 0  1.598214285714286 0.7946428571428572 0  0.875 0.1681547619047619 0  1.508244264625336 0.2143493347914263 0  0.537924619652453 0.5112261410426409 0  1.125 0.154265873015873 0  0.21875 0.21875 0  1.1875 0.8125 0  0.1796875 0.4140625 0  0.4375 0.1875 0  1.289794950204951 0.4943848506148524 0  0.9375 0.5625 0  1.8125 0.8125 0  1.869047619047619 0.375 0  0.306640625 0.541015625 0  0.1416015625 0.6081194196428571 0  0.375 0.8715277777777778 0  0.7878874375837291 0.3248062812081354 0  0.153125 0.846875 0  1.838541666666667 0.1614583333333334 0  1.673611111111111 0.4652777777777778 0  1.375 0 0  0.7131428669914515 0.8253214334957257 0  0.7206235893771994 0.6614203860924323 0  1.653859750753041 0.1350752024885296 0  1.171553649596502 0.3800337391363729 0  1.020833333333333 0.8333333333333334 0  0.4360525641032634 0.6330299904393442 0  1.508928571428571 0.6607142857142857 0  0.125 0 0  1.562047069667471 0.3588464594484652 0  1.066821025796166 0.4870369226115026 0  1.372434789129916 0.1501830428251819 0  1.397572001626963 0.3970706043732994 0  0.5715219737723877 0.8698933499126715 0  0.9042584128096922 0.4174908995079927 0  1.003472222222222 0.6944444444444444 0  1.272705049795049 0.6420899004099017 0  1.3125 0.875 0  0.5245753803475469 0.3616507606950939 0  0.7293202423318081 0.1459101211659041 0  1.469246031746032 0.8591269841269842 0  0.875 1 0  0.5625 0.125 0  1.85444568452381 0.5213913690476191 0  1.875 0.6875 0  0 0.125 0  1.392655346118954 0.5811272954775059 0  0.6619703121556711 0.3842420574783494 0  1.125 1 0  0.375 0 0  0.3167613636363636 0.1235795454545455 0  2 0.875 0  1.875 1 0  1.605229591836735 0.5747590702947846 0  1.699083011583012 0.8788610038610039 0  0.9982225529100529 0.1292162698412699 0  1.375 1 0  0.625 1 0  1.625 0 0  1.875 0 0  0.625 0 0  0.375 1 0  0 0.625 0  2 0.375 0  0 0.375 0  1.125 0 0  0.875 0 0  0.125 1 0  0 0.875 0  2 0.125 0  0.8347154254703812 0.875 0  2 0.625 0  1.625 1 0  1.249055982776079 0.1727441706461531 0  0.4001949725348535 0.7509141330152288 0  0.1076766304347826 0.3125 0  0.1206266972802661 0.7287876397828053 0  0.839045334706977 0.6338484449023256 0  0.1026785714285714 0.1875 0  0.1875 0.1025191326530612 0  0.647087651085914 0.56465454646987 0  0.4175806492347585 0.4896150099790182 0  1.124723442875088 0.272006546354114 0  0.9025364992112173 0.3002552609864784 0  1.710459183673469 0.7423469387755102 0  0.2611111111111111 0.8857638888888889 0  1.177286695349859 0.521702157920197 0  0.3359375 0.2578125 0  0.267578125 0.345703125 0  1.107291666666667 0.7350694444444444 0  1.615946089418426 0.6860954641972395 0  1.819940476190476 0.2730654761904763 0  1.75830270586982 0.3919383189517417 0  1.60542025246854 0.2604314953837324 0  1.47529437030095 0.1082834354672917 0  1.407616811984598 0.2515245892897627 0  0.5417644749872034 0.6179405079134659 0  1.292605834233751 0.3891584395767265 0  1.571560171687723 0.9025449465500486 0  0.4948260752512502 0.7974906259153529 0  0.9397899849485198 0.9078383314518984 0  0.8133000292679321 0.08407738095238092 0  1.476686507936508 0.7574404761904762 0  0.1110425383368033 0.5013559892496797 0  0.2112130102898548 0.5094901147101452 0  0.29931640625 0.44091796875 0  1.1875 0.07713293650793651 0  0.4106128246753247 0.0922957251082251 0  1.90625 0.78125 0  1.890625 0.890625 0  0.53125 0.21875 0  0.43359375 0.2903645833333333 0  1.21875 0.90625 0  1.111378205128205 0.8926282051282051 0  1.269897475102475 0.7471924253074262 0  1.029513888888889 0.5989583333333333 0  0.8522579878681762 0.5057260363954713 0  0.4735106227127113 0.9007265262494941 0  0.9590087510503688 0.2195632990669812 0  0.6875 0.9219597779820848 0  1.297061602521838 0.08663184834406668 0  0.8057486862661835 0.4203625921047867 0  1.793269447512567 0.9105428610875859 0  1.192060400311378 0.6922481068149043 0  1.754252759835165 0.5248380520595106 0  0.09102701677793967 0.09104872753828278 0  0.7253449499868028 0.2462465282608479 0  1.484694639796352 0.3053830929854885 0  1.739818341109988 0.1929433411099884 0  1.742395305945888 0.09633901341431061 0  1.5625 0.0712199154988299 0  1.92926747311828 0.1875 0  1.90752469027583 0.09218971500852076 0  1.40768629618205 0.4894347989095132 0  0.08806450569358179 0.4027157738095238 0  1.912105021337907 0.2781978201831695 0  1.213814955489757 0.2975491648102477 0  0.2318947826372472 0.7975197826372472 0  0.06766581632653063 0.8125 0  1.93452380952381 0.4375 0  0.6247824869223918 0.4719944419277 0  1.0625 0.06548008473267392 0  0.3365452571729279 0.6359685188818469 0  0.2379420733423327 0.6299633247212709 0  0.6875 0.06556243656869358 0  0.3236766744217268 0.7978685432210111 0  0.8310171284078489 0.2462432983132972 0  1.934836256037958 0.5625 0  0.9161950191268687 0.08407738095238093 0  0.6255648715181676 0.7943309019754321 0  0.7969452222935728 0.7938361597008705 0  1.049114351431065 0.2049887101224473 0  0.1836020902149457 0.931618241059888 0  1.587837819422641 0.4878002082243154 0  1.656458741565034 0.3715695260907847 0  0.9746733823051021 0.4776637837933646 0  0 0.9375 0  0.0625 1 0  0.08488520408163265 0.90625 0  0.625108507899049 0.6519433794169625 0  0.9179752099882805 0.6730563883756762 0  0.4799911838279058 0.7100598895640633 0  1.79655612244898 0.7264030612244898 0  1.028270112243967 0.4083923893159024 0  0.9066957593018397 0.8292061892030722 0  1.358770484011389 0.6629439624162315 0  1.4375 1 0  1.395391088162172 0.9116794559189138 0  1.482797859881745 0.3908170231280859 0  0.6455330629466264 0.1384632183556422 0  1.029395089402758 0.9190389695086781 0  1.836666296419157 0.607917407161686 0  0.4535978296068884 0.4110171803721298 0  0.06550603987731521 0.5721451437613042 0  0.9569373077851933 0.7631562395310373 0  1.583993153355993 0.1801147415980886 0  0.7937649993393823 0.707466203500723 0  1.824565284334692 0.07855596330344469 0  1.219218268800778 0.4490550565788002 0  1.09246753402758 0.3566001189940414 0  0.7281178214686024 0.5794009834944619 0  0.6932515372564962 0.7422923192533981 0  0.1868917396185889 0.3326442902239 0  1.381389496819767 0.8313197484098837 0  0.3251953125 0.9357638888888888 0  1.822983647514895 0.4443292349237342 0  1.522805799535004 0.579338169867103 0  0.1996769442187233 0.7035837018142242 0  0.07584180090947087 0.6588459491136841 0  1.179616205578152 0.2132648206592699 0  0.4805199872536258 0.5667179735898049 0  0.3858701449073073 0.5665964231522445 0  1.098089669722258 0.8141404887505225 0  1.687233248862278 0.572163739146816 0  1.551166608520145 0.7312353751304908 0  0.4922995523139784 0.0819752238430108 0  2 0.9375 0  0.768368512152681 0.921241957327667 0  1.247199476430077 0.5642976316950705 0  1.6875 0 0  0.6774039677538598 0.307779775489877 0  0.6000141078244342 0.3319476482371208 0  1.434261329029022 0.6895619774012085 0  1.66493947909829 0.2113935814263256 0  1.443093262894167 0.1764378413598336 0  1.402006909638446 0.07557472224679147 0  1.340345392925933 0.2181010093132612 0  0.5554578582348065 0.4342779583340344 0  1.107361224480081 0.551189700840597 0  1.138385583366683 0.4523261983614127 0  0.8533445989779486 0.3620185773637825 0  0.9515078554899268 0.3581664525345664 0  0.5386270525248704 0.9365222029658709 0  0.7385910931871089 0.3834681382026311 0  0.802177695014711 0.1569173507111856 0  1.678649386507641 0.6460608856108409 0  1.321228366282072 0.5614685347415731 0  1.41359183689185 0.3250565808516193 0  0.6954048733751652 0.4501669473459832 0  0.1485611191567167 0.2482653329281137 0  1.3469535863885 0.4493494260445651 0  1.465721499292709 0.9323462488904651 0  0.7981542850547552 0.555986631721179 0  1.538905404408536 0.8372354119916759 0  0.5402362619913743 0.2907759906818941 0  1.544445456917978 0.4294227313618058 0  1.64210730014833 0.927239663021229 0  0.6436701064529 0.8643871094205939 0  1.458142277220564 0.6101822863463986 0  0.4380500880834657 0.8395863885666418 0  0.609775472096462 0.930213850449219 0  0.2582723336415264 0.07535405277673025 0  0.2464725418959271 0.1492463151953984 0  0.3026740927503065 0.1940782140226835 0  0.6136302244057281 0.07244011220286403 0  1.037390873015873 0.760734126984127 0  1.064236111111111 0.6597222222222221 0  0.4095428818227003 0.9357638888888888 0  0.5950820785655451 0.1868339607172275 0  1.261352524897525 0.8210449502049508 0  1.28125 0.9375 0  0.5 0.15625 0  1.9375 0.71875 0  1.927210589804446 0.635671179608893 0  1.9375 1 0  1.626447537183655 0.8588601831331419 0  1.669722968375728 0.8015190092763261 0  1.741107994028916 0.8070548843809463 0  1.204001864890377 0.6215380952542296 0  1.677831627302534 0.06931873288731356 0  0.3125 0 0  1.869908299928041 0.2232403652524313 0  1.348462648995713 0.3483571605131688 0  0.3786180084120425 0.1527303780499803 0  0.3487561798996458 0.06314489251279025 0  0.2360060703178168 0.2849796364162243 0  1.612623216848136 0.4240614066492297 0  0.5625 0 0  1.44829775698497 0.5431703903381939 0  0.6734193446913824 0.2012552484100826 0  1.321327673059477 0.790563647738753 0  0.9661399202258864 0.6245602277896942 0  1.807323292851816 0.3419398170341963 0  0.9999257554414013 0.5392912151029183 0  1.741351399185104 0.457933324954483 0  1.1875 1 0  1.939453125 0.841796875 0  0.8125 1 0  1.15625 0.9414854812476081 0  1.6875 1 0  1.732215719876833 0.9362048860500158 0  0.3490171788168188 0.7041577754578493 0  0.874866
[...]
<PointData  Scalars="f_915"> 
<DataArray  type="Float64"  Name="f_915"  format="ascii">0.0000000000000000e+00  0.0000000000000000e+00  1.0000000000000000e+00  1.0000000000000000e+00  -4.4119766417054642e-56  9.4474571356818177e-53  1.6910115458035897e-77  1.9659791200159347e-77  0.0000000000000000e+00  1.0000000000000000e+00  2.3134277419683044e-29  -1.4870764582601102e-30  1.4250763881020451e-64  -1.5594443469161968e-29  -4.3037350373517837e-82  -1.6812933128927797e-48  -1.1012981444447956e-86  1.0000000000000000e+00  3.0610469087389679e-18  1.0000000000000000e+00  -1.2605824874931054e-18  1.5041790786735478e-44  6.4309526856355814e-51  1.7160921381217876e-67  2.4825345215783288e-18  4.6741841880613463e-74  -1.5298155527479926e-60  9.1697994435096771e-37  -1.3784057161416627e-17  5.2978807439862615e-69  3.3753965858594249e-39  1.9221382839863405e-36  -1.5859444570167545e-89  0.0000000000000000e+00  0.0000000000000000e+00  -1.7168184607257950e-87  6.7229728398290268e-63  -1.2620846300035476e-25  1.4742821978473756e-58  -3.6013409252223403e-29  -2.6860637514857463e-73  1.5250186362138622e-46  5.1082819834750865e-88  2.2332387483896630e-44  1.0264302039783867e-89  9.3567874904870461e-78  -3.5789271942402325e-40  -2.3044217275095202e-56  4.6015026175167847e-14  2.4501260718979960e-11  1.1858742876224988e-85  7.6757163803100848e-94  -1.1292862361605319e-82  -3.3427475909283469e-61  -9.6700403254705802e-92  5.0546731396294914e-14  -5.4857018456648115e-22  -8.0929989475334303e-38  -1.5575109857167733e-65  -5.0370371817348972e-67  2.2571941954455728e-22  7.3313328310077572e-43  4.3425202722628709e-53  -3.4870554564690610e-80  -3.0181401346097236e-29  1.6141411828834785e-94  1.2310826665941598e-25  -7.0571546517843918e-50  6.8270352217837933e-36  1.2694543749526555e-32  2.0074011114873435e-73  -2.5116107568531879e-55  8.5371350675859877e-53  9.4362175689239057e-41  -5.2225994870162782e-39  3.0826926212165262e-76  6.4035427782975444e-64  5.0268717887028199e-31  1.9354804022504315e-57  2.1369340565137979e-72  -1.8284657044363539e-12  1.3611201257668309e-11  0.0000000000000000e+00  1.1030174751637918e-34  7.0829164555865887e-68  6.4794496196820808e-46  1.5330400978520559e-83  6.5259011018305580e-84  1.0000000000000000e+00  6.2430716055248502e-11  -3.2464965848698906e-24  8.2031311591553036e-21  2.1714845604956288e-52  4.2425359502625201e-34  3.5493487800630458e-69  -7.0250870489659340e-25  -5.6116080171493231e-12  3.2106517000938263e-71  9.0629384513433873e-82  0.0000000000000000e+00  1.0000000000000000e+00  0.0000000000000000e+00  9.6569546978641378e-51  4.5702510194342765e-60  5.6575428986145508e-93  0.0000000000000000e+00  1.0000000000000000e+00  -6.6826811631881905e-60  1.0000000000000000e+00  7.6619832062652079e-24  -6.1415110161022707e-41  -1.8351785568739850e-81  -1.9521577605224023e-95  5.7529294664226039e-94  8.3701822071627484e-62  -2.8668136288135841e-93  1.4632967338453980e-89  -1.6005428464704613e-70  -3.0308052097785466e-78  -1.2466890332414864e-45  -2.2388011116653469e-57  -1.3475632977193126e-20  1.4281829299113269e-86  -1.6101125605488661e-45  -9.2657414674316441e-83  1.0729113636666569e-86  8.3767863662065724e-48  2.2306672909750692e-23  -4.4600027246979314e-16  2.3229950826334055e-16  8.9789194846198104e-24  -4.1039677812277141e-31  2.1204982656228268e-32  3.9262021079836920e-76  8.5208649701514817e-38  2.8074990493694181e-28  2.0396350415980348e-75  9.2170957377054824e-55  1.5876532874697028e-62  8.1007653342145917e-31  6.0652809187136987e-93  -2.9081863056570346e-89  -3.8157312736292897e-84  5.7408435849171310e-46  2.3548222832405260e-80  1.1372841205732897e-09  4.8654433698612222e-11  -1.7649109527143895e-72  3.7254686739968131e-79  5.8377840798208993e-42  3.3750411343901607e-47  -1.1868725511470809e-41  -3.9246976835825048e-53  3.2612182607080404e-60  -1.2388365316440299e-76  -2.9376895254579053e-55  1.8092362397962209e-67  7.3314776164999844e-40  9.6568479607894670e-60  1.2090319726081784e-15  -3.5375542427849918e-44  6.6422393820124117e-17  -5.2620638546183437e-94  -2.5043130351212936e-63  -1.9187134006301972e-28  1.4136929360186993e-17  1.0668908239309730e-19  -8.4859876767157590e-28  -1.3563545262647839e-09  6.0481426308326906e-10  6.6599266920642078e-34  4.8531002317742920e-95  1.3526231184613227e-09  -2.0179349111003936e-41  1.4729505966697647e-87  -8.8647604068369946e-95  -4.6867928048714000e-09  -1.8771362723333626e-69  1.2676430613759979e-51  9.6328881374334426e-86  4.0157002864960066e-89  6.3950142972029274e-68  7.8582712357562177e-84  3.5539899140513752e-59  -3.1532108081142881e-09  4.6890941087862374e-58  -1.1248804825287099e-70  -8.8434412624121609e-64  -1.5963821403842976e-50  -1.9950589488320781e-90  -2.4293663376835258e-25  6.6838628134344369e-20  1.1998067622492251e-54  0.0000000000000000e+00  -1.0674392465414659e-96  -4.8135066380173890e-96  1.5856227104391581e-71  4.7930544827049822e-58  -3.9115919368915583e-78  -2.8978089239296142e-15  1.1766858050155237e-49  -4.0356902458498705e-58  -1.3557702966842762e-37  -1.2744478652476223e-31  -1.8020201287344812e-34  -1.8297689613579677e-29  -6.3065509197571635e-68  -5.8607910539280702e-50  3.7845502642809935e-13  6.2058608153777483e-78  4.2727889785910155e-97  4.9401012162852344e-56  -1.2144301798096341e-24  2.0817070761111134e-63  3.8474312009043676e-15  -2.0732182146808786e-41  7.3259327860268657e-46  3.3070361430192800e-66  1.5910930219716514e-68  1.8200696863813000e-91  -1.7555271888427331e-34  5.2533905094713638e-83  6.6935365441877392e-14  -3.5315023362003449e-28  1.1758122661383620e-91  5.9711235901261778e-96  2.9641988578029654e-45  2.2969458283409872e-77  -2.7153972920655565e-82  1.0649538762857841e-49  -8.4814893186365387e-21  -8.1983358989713655e-28  1.6607877917005798e-76  1.0000000000000000e+00  -5.6888922005691847e-64  -2.1056761298534333e-41  1.3373458406478252e-22  -4.5725831386506876e-67  -4.3602789552925380e-71  1.3891340114935234e-33  -5.4926305678457514e-22  1.8045469458875729e-33  -3.2106603960785836e-35  -1.2330011283293462e-36  4.7195617967031519e-72  1.3916133592392497e-48  3.7703146208714374e-45  -1.4203276001699119e-57  -1.5619555887052017e-53  -7.8738583156419603e-74  9.5683688179272980e-63  2.7397907006228767e-62  1.7456090037967623e-21  -2.9579946736298118e-38  1.6955179388364742e-32  5.5871404779906710e-66  1.7606931711032714e-91  6.2107047677984255e-36  -1.1771850233846056e-30  2.3856564846250797e-63  -1.1004981119440231e-28  -1.0133798775419237e-73  6.3555395749635801e-27  1.2603593541496615e-23  -8.5504676916315448e-69  1.9409436133139580e-31  1.4700302791596913e-78  -5.8320835882252034e-71  3.9561966353599122e-87  -4.7939224824721441e-89  -1.6883963903734828e-84  3.1392691738044539e-71  -1.3173043934376189e-51  -1.4234442656075140e-50  -1.8862337472602511e-79  2.1219023291631316e-71  1.4611839355379139e-41  3.7494643388800543e-38  1.8192527451163962e-75  2.5060858543616570e-08  -1.3961526109068632e-09  1.7086863825120158e-09  1.0748279270708846e-23  3.1245600299941480e-21  5.8942882492140336e-18  5.3697342672299965e-44  8.7278823344297008e-23  -2.2518043810823780e-86  -5.8420912654718387e-12  2.7196613485641820e-35  6.0903710227880882e-82  3.4109533801710388e-84  -1.0938635831458005e-87  -8.3993895999605525e-25  1.0415422357327778e-73  3.9798191816369277e-32  -3.1158271760921678e-67  -2.3119787669290410e-39  7.3478117986846948e-56  3.4460995276183999e-15  -9.2175987924058622e-54  -2.8161337517041711e-18  4.5492859163036599e-43  2.4362916188160681e-08  1.0286101140705289e-60  -1.5468575517351211e-43  -4.8394664898124350e-22  -2.6629457483876407e-19  -3.8944563557528509e-83  -1.4712097952987762e-58  -1.0712173757032874e-62  0.0000000000000000e+00  -4.5070976979270594e-75  5.2503112100731472e-09  9.1502544810057248e-91  1.0284196631948526e-72  1.3076214094004392e-56  1.3868639698939681e-09  1.0000000000000000e+00  -2.0403187667972041e-27  -8.4414115243510962e-42  4.8030232736936090e-55  2.7524368553856909e-49  2.4407777147318414e-55  1.0877685669697801e-27  -6.7600162115556098e-23  -1.7829714422741022e-26  -1.9822070332198478e-59  9.3819431101923156e-99  0.0000000000000000e+00  4.4276502095627384e-81  -3.1547767352763133e-95  -2.0222998594804137e-82  -8.6337872482790473e-23  4.4036484316892150e-65  1.6585687577875138e-71  1.5788560005922560e-57  7.0415747300037141e-49  1.4037965152439192e-39  4.4850996406873700e-44  -2.6177148115080014e-49  5.4593875409412256e-95  4.6699068538477526e-15  9.9278985327510934e-09  1.9214018159776086e-73  1.1269340041213383e-84  -1.0756363378887871e-15  0.0000000000000000e+00  -3.0546972257512565e-59  1.0000000000000000e+00  8.1141505222855344e-69  1.0000000000000000e+00  1.0000000000000000e+00  1.0000000000000000e+00  9.6762841924576022e-28  -1.1640920130170275e-40  1.6105199418418635e-67  3.2767237501264744e-47  5.9548166965565578e-63  -4.1316593779008423e-52  -4.7423493680112704e-57  -2.0214090329817784e-27  2.5556152323098811e-91  0.0000000000000000e+00  0.0000000000000000e+00  8.7278105989818654e-17  0.0000000000000000e+00  5.6529059428377063e-89  0.0000000000000000e+00  -2.0852844503429546e-34  2.6416652990670361e-79  2.2323248223605117e-37  1.0000000000000000e+00  1.0000000000000000e+00  1.4902322185234778e-97  7.2823550189367136e-67  2.2431096431281920e-32  -2.4946750583068425e-18  9.5068476530028748e-65  -3.5481682975181220e-79  -1.4774274337073722e-83  6.5985810497152943e-92  -1.0319396279415555e-80  1.9482728150636365e-13  5.4792157709349961e-86  7.6548704500302583e-93  4.5785467794989611e-97  -2.0478435792729736e-39  3.8938906221927181e-78  7.6061793472920406e-22  -1.2065517002308543e-81  4.0628129678967649e-80  4.3822650017380580e-53  4.0790953116220379e-73  7.5983851294537207e-61  -1.4380015388343868e-70  -4.0233511279160647e-69  1.8924234133945965e-40  4.6161374305992570e-14  4.7332325373163726e-92  3.8300746132289906e-35  -3.5466155076125974e-76  2.1957642496277593e-28  -3.2809417382256963e-39  -5.6856860055133708e-34  -3.7725164607935074e-51  3.9614545420659583e-90  -1.2305308836774307e-91  -2.7903677385683862e-44  8.9796392026188194e-96  -1.4376548229396376e-93  2.5406138608400125e-08  -2.6919180217299366e-47  -2.9785322228153997e-73  2.0140187291418275e-47  1.6816280722340273e-60  2.1642688678942794e-62  -1.3965392931294252e-47  2.1358224978838244e-48  -8.8388196710666800e-46  -7.9377389876769349e-71  -1.6740675027684452e-53  1.7862191300602152e-14  2.3551795437664767e-25  2.4696782537593658e-38  -2.0420343772488773e-17  -1.6381411186213157e-11  4.4111979733944394e-17  -6.2701665946800435e-67  -1.5004429908109664e-43  -6.5432371071065856e-46  -2.0182586242821302e-92  -8.0817876895208283e-26  1.7812554845633057e-61  -4.3375992259552329e-36  -2.0567944802587005e-90  -1.1581914429939446e-85  -3.4569415809773331e-84  2.2187542841529813e-31  -2.7070597335798611e-64  2.2866624859309557e-55  3.3048011984938308e-42  -6.2749652309862396e-35  -5.7374857578260360e-17  4.0132298389770343e-15  6.9670560687452611e-42  2.2581331249800963e-12  1.4600463573969108e-24  -8.0556869503187346e-86  -3.8231689634478717e-35  1.3024753207304321e-86  -2.9727687098814013e-27  1.2002649506263187e-88  -2.2574335216897364e-86  5.3777191543374304e-17  1.5052734566524354e-19  1.4573765920911639e-59  8.7243772968587514e-65  1.7165431147031608e-19  1.6738886790342033e-42  -1.0897733238869177e-47  1.5587197201894630e-46  8.1865235362483567e-84  -8.9942277027154894e-87  -1.3014762589436211e-61  -6.9105927043858826e-96  7.1602095312979213e-93  6.2808449150351446e-75  1.4398881713416238e-46  5.4039123910700783e-12  -1.3556994285231485e-13  6.6526450602291705e-54  1.8993788115092860e-53  4.0933579301718137e-77  -5.0015667776372676e-91  3.5664792413448132e-33  -1.4620906208226394e-16  2.4266199532071021e-88  -1.0353414617432013e-49  1.1238535756489658e-38  1.7166909768786564e-10  -1.5754449139898247e-51  4.4411086612308055e-66  1.5166821279176542e-24  -5.0147995826833263e-29  2.3620051306692933e-26  2.5558369527582246e-31  6.7111411705860634e-35  -2.5044824165650687e-60  4.0744194071444434e-74  -1.4714792402720350e-78  -5.0317412768585932e-28  -1.0058118144470846e-56  -3.0436882003550913e-77  -3.0713397128655167e-16  -2.1859465174184986e-77  7.1318385522468519e-79  -2.8413757081651178e-76  -4.7880192513020380e-75  -9.1322242446361487e-39  -3.3603929789204219e-64  -7.3145092916376935e-50  -2.8941646631486837e-75  1.8845627885465062e-60  -5.0209622130914535e-62  -9.4889651635757249e-91  -2.1556452466756728e-38  1.3810856117796649e-82  5.6603059297573634e-30  3.1109505171959940e-26  -9.2005066161109978e-20  2.3585623817579670e-47  7.4103882247005527e-92  2.1047974391509078e-94  8.6748591358779305e-15  -3.9365288559857780e-69  -7.9996493582028317e-97  2.6205096936190491e-19  7.2056050272979768e-89  4.7625172405722557e-86  -2.2810120550852687e-97  8.8383991780834224e-97  -1.4019498320066584e-58  -2.5679531647848860e-63  -4.7487670275973689e-94  -1.2659245701389503e-31  2.2768009367103060e-30  5.4174891610950643e-39  -6.7411292212736759e-93  9.3807906684781100e-87  -4.1596751580785886e-82  1.2362386621839456e-73  4.5057731289215762e-49  1.1886514401406125e-20  -2.9368765559359642e-36  1.4355894855388125e-95  2.4967611576646644e-66  -1.8106858411537908e-65  -4.2030473708421230e-85  2.0602818969587844e-82  1.1537772003105631e-79  -2.9132720231888547e-45  -2.2268570854296333e-19  5.7826536721038224e-20  -7.6644357050337756e-68  -1.2328409200967656e-64  -2.7394215302930256e-86  3.6304027731287446e-79  1.1083678512276898e-16  -1.7999597991041256e-89  4.3336042084882531e-47  -7.1025226147878306e-96  2.4363847200670679e-74  4.7285981085996444e-50  4.8520448110740902e-53  -3.0317091741200697e-81  1.6275319251595013e-78  -1.1301552777017973e-21  -6.3948992787557660e-12  4.4509647191604990e-08  5.6097691753194741e-42  -5.3128418235536915e-41  -1.1440934110849280e-74  -5.0506536808201911e-72  -8.3915115213322672e-44  -4.1284780211939819e-24  4.5084834346687060e-53  6.9895066766085928e-18  -4.9608888379617045e-59  1.5942505842559593e-55  -1.5997365874382079e-33  -1.9814070324200209e-07  8.9404806650093075e-09  1.8309702859646726e-56  -1.3429148589914599e-16  8.0023567680328180e-33  -5.6614150606477082e-13  5.9449894237287516e-12  6.3988024497085328e-66  -1.4039228199151467e-61  2.1060841886354997e-96  2.0900483117627185e-96  2.7388046799182570e-85  -9.3224390003740092e-87  2.2837033715857572e-08  -1.3669390668345125e-80  3.9012987949708927e-56  -9.2471366235382597e-22  -9.8458720886489123e-66  -4.4334132429606405e-98  2.7444213715483962e-39  -4.4568223566446460e-29  5.4868745131882725e-26  -1.1056861592621042e-96  8.5744962027463972e-89  4.1516774229439197e-31  5.1797041608987490e-13  2.6022516253822364e-87  2.6474015529748819e-72  -4.6478205201785457e-46  -4.1771322534205151e-89  9.5481402962705572e-77  -6.0370519617007642e-54  3.3979673734102064e-97  3.8156201108210259e-82  1.8349646846385527e-07  6.7496009080736842e-08  5.7876403154085081e-08  -5.1989959441561433e-30  3.3471842457262229e-28  4.3829791024393337e-27  4.7296908479910856e-12  1.9468023690958576e-61  -1.0621656541871362e-40  2.7797479157483625e-41  -6.3020882627567428e-55  -2.2229917161845127e-57  -6.1211623055827618e-60  1.3894313921261921e-58  -1.3666204576726329e-56  -3.9738356606632722e-92  -8.4296585649176523e-89  8.0518164207680058e-16  6.6242944217678975e-89  -3.4906135391647346e-34  -6.4626271991125609e-31  -4.6444267084779919e-34  -9.9610070403201872e-71  3.0359229942387557e-74  6.1988063449700028e-69  2.1915026038004461e-86  -4.8828327776908767e-11  -2.1322963450194494e-39  1.8366612053500043e-44  6.3751218234541662e-92  5.6779631650914280e-55  -1.0653223575760891e-55  1.3456855314430484e-52  -2.8002378683185964e-33  -4.4889232330563574e-97  3.7378092479700736e-78  3.3102252777722044e-41  -4.8173843958857291e-51  -1.8725708386562192e-48  -2.1976135240685414e-55  -1.2394775109116428e-60  -1.5535199289073039e-55  -2.1337133542212078e-12  9.2338304359923091e-11  -3.0445394139004769e-69  4.7811201199261171e-08  4.7820583949630241e-85  1.3672343172260349e-45  -1.1264598052304035e-90  8.3830698144532203e-33  -6.1421710976059897e-36  1.3539243903303211e-65  4.9826875528878231e-67  5.9953558077520585e-70  -2.9702031964265456e-21  1.2586082311121223e-53  4.5932740519406893e-52  7.5043461291843315e-68  1.8169218436226358e-55  -1.6959313061370470e-10  5.6975917458903609e-07  -2.9482977606156032e-26  8.5240345744171684e-72  5.3308988912763675e-47  4.5991046447506534e-63  5.6726723115726715e-80  -2.7000018617594160e-22  -5.3788693278164555e-62  3.0024884926816693e-62  6.3851986340475618e-66  4.1949128513567592e-50  9.0324081213513419e-08  2.5618292570370391e-37  7.7758867473578634e-23  1.5568208707603285e-27  2.9235491119687384e-80  5.3904022216705879e-73  -1.6879555984943606e-74  -8.5599819852432469e-08  6.1359664600090140e-07  -4.0148803724004259e-47  9.2717034468519458e-07  1.4786302236094151e-12  5.0328933416114259e-30  -3.0890035175205142e-58  -1.4958030485131589e-59  -4.8361008777656427e-29  5.2111145114489245e-63  -3.9024422449264034e-83  -1.4084994616177446e-84  6.9325440257992988e-15  -1.0817217031349601e-52  -5.7982722259387409e-50  3.3083554629068704e-17  -1.1420472811894360e-13  -3.5579391817522825e-86  2.8220203691177327e-49  -2.5165017805253294e-95  2.0796641019157906e-98  1.4927858357213944e-56  -2.7527297895440943e-23  -6.9818521455266690e-83  3.5701617648900542e-97  8.5141230375570857e-22  4.1396345771142808e-25  7.3977132039909470e-42  3.6917227957352430e-67  3.2478193872964286e-28  1.8279654151152190e-35  -9.3200903705623907e-79  2.7621885474868217e-77  2.0040513655256802e-79  1.8336601814301455e-64  -1.1596416523752543e-62  1.3405273176449278e-57  -2.1996237808742373e-70  1.8553972362894024e-88  -3.9165182872692802e-48  1.6505921353598247e-48  1.1108765382273886e-57  -1.2546624970693121e-92  8.3234644848308517e-44  -2.2425188402689566e-24  1.2589391243859199e-43  -4.8827233553639317e-23  9.4862993894314596e-82  -1.8905569654523841e-43  1.2509945418024643e-36  3.6506347678576931e-30  2.9189867842607607e-26  -1.3100516826406058e-74  -4.1578311005549554e-68  -5.7323583955966339e-72  -8.0173537997425724e-59  -1.4653210327054333e-59  -3.3989499502375008e-36  1.9215106351011600e-09  -5.4291649795504810e-38  -2.7884862321535961e-75  1.1361661191970051e-22  4.7744311304593198e-32  -3.2196725528273584e-64  6.6858328429008863e-94  -3.1560429462316982e-61  -1.3656452776125365e-93  2.2748063542805412e-37  -5.8492172481640231e-81  5.0414098393381706e-72  3.4546567268931633e-71  -3.4047301470253874e-73  1.1519345185188403e-70  2.4856584980022419e-67  -1.7383227256697658e-66  -3.7908614791483123e-18  7.9514108582000266e-78  -2.9323023920465860e-42  2.3617051429036445e-44  2.8964759556366328e-41  -1.8914174661182575e-58  -5.8949278392213940e-10  -3.0319341902908539e-74  1.4208555396089839e-25  -1.5583292354447997e-82  -1.2548513765400282e-47  -6.6439084374527381e-34  4.5485330578340487e-93  -1.3764191183824991e-81  2.1631842299223694e-70  5.7667405301731844e-16  3.2500605415287246e-14  5.2139897704506761e-87  2.5832920852838465e-18  1.2741533369814547e-20  -1.2076549729392199e-95  -3.7831310548272536e-53  -3.1907361681192486e-58  -9.5512949498146887e-13  6.8142840157623481e-32  -2.1182966297371578e-30  1.9526753791610022e-79  9.6277126496367563e-22  3.2761807620036450e-21  1.2995679462172737e-80  7.8983472532897392e-30  -3.0481410901786993e-26  1.2365098101146091e-23  3.0720040629970843e-42  -2.0155748423019167e-24  3.6042467530586870e-66  -1.4800960984778152e-68  -5.0359210098314965e-67  6.8851303354963619e-07  3.3028360787461543e-75  3.7879369131756821e-75  5.1386228339399306e-51  -3.7564839484111993e-26  -2.2771151196911459e-19  -1.1547748627173917e-84  -5.8649271157217633e-40  1.8091145286526123e-41  -1.0516893088781165e-73  1.1221271432406635e-90  1.9809295591745023e-11  -3.9301092677471051e-36  -1.2758593805723303e-43  4.2351146964468514e-85  -9.8770516175569637e-64  -1.2289515314709154e-68  1.3517124965553289e-14  2.6185337401687383e-69  2.5618813