<?xml version="1.0"?>
<VTKFile type="UnstructuredGrid"  version="0.1"  >
<UnstructuredGrid>
<Piece  NumberOfPoints="32099" NumberOfCells="63428">
<Points>
<DataArray  type="Float64"  NumberOfComponents="3"  format="ascii">0 1 0  0 0 0  2 0 0  2 1 0  1 0 0  1 1 0  0.5 0 0  0.5 1 0  0 0.5 0  2 0.5 0  1.5 1 0  1.5 0 0  0.75 0.5 0  1.5 0.5 0  0.375 0.375 0  1.125 0.625 0  0.28125 0.71875 0  2 0.25 0  1.75 0 0  2 0.75 0  1.75 1 0  1.25 0 0  1.017857142857143 0.3214285714285714 0  0.75 0 0  1.708333333333333 0.2916666666666667 0  0.5679347826086957 0.7214673913043479 0  0.875 0.75 0  1.305600649350649 0.2846996753246753 0  1.75 0.625 0  0.625 0.25 0  1.25 1 0  1.375 0.75 0  0.25 0 0  0 0.25 0  0 0.75 0  0.25 1 0  0.75 1 0  1.598214285714286 0.7946428571428572 0  0.875 0.1681547619047619 0  1.508244264625336 0.2143493347914263 0  0.537924619652453 0.5112261410426409 0  1.125 0.154265873015873 0  0.21875 0.21875 0  1.1875 0.8125 0  0.1796875 0.4140625 0  0.4375 0.1875 0  1.289794950204951 0.4943848506148524 0  0.9375 0.5625 0  1.8125 0.8125 0  1.869047619047619 0.375 0  0.306640625 0.541015625 0  0.1416015625 0.6081194196428571 0  0.375 0.8715277777777778 0  0.7878874375837291 0.3248062812081354 0  0.153125 0.846875 0  1.838541666666667 0.1614583333333334 0  1.673611111111111 0.4652777777777778 0  1.375 0 0  0.7131428669914515 0.8253214334957257 0  0.7206235893771994 0.6614203860924323 0  1.653859750753041 0.1350752024885296 0  1.171553649596502 0.3800337391363729 0  1.020833333333333 0.8333333333333334 0  0.4360525641032634 0.6330299904393442 0  1.508928571428571 0.6607142857142857 0  0.125 0 0  1.562047069667471 0.3588464594484652 0  1.066821025796166 0.4870369226115026 0  1.372434789129916 0.1501830428251819 0  1.397572001626963 0.3970706043732994 0  0.5715219737723877 0.8698933499126715 0  0.9042584128096922 0.4174908995079927 0  1.003472222222222 0.6944444444444444 0  1.272705049795049 0.6420899004099017 0  1.3125 0.875 0  0.5245753803475469 0.3616507606950939 0  0.7293202423318081 0.1459101211659041 0  1.469246031746032 0.8591269841269842 0  0.875 1 0  0.5625 0.125 0  1.85444568452381 0.5213913690476191 0  1.875 0.6875 0  0 0.125 0  1.392655346118954 0.5811272954775059 0  0.6619703121556711 0.3842420574783494 0  1.125 1 0  0.375 0 0  0.3167613636363636 0.1235795454545455 0  2 0.875 0  1.875 1 0  1.605229591836735 0.5747590702947846 0  1.699083011583012 0.8788610038610039 0  0.9982225529100529 0.1292162698412699 0  1.375 1 0  0.625 1 0  1.625 0 0  1.875 0 0  0.625 0 0  0.375 1 0  0 0.625 0  2 0.375 0  0 0.375 0  1.125 0 0  0.875 0 0  0.125 1 0  0 0.875 0  2 0.125 0  0.8347154254703812 0.875 0  2 0.625 0  1.625 1 0  1.249055982776079 0.1727441706461531 0  0.4001949725348535 0.7509141330152288 0  0.1076766304347826 0.3125 0  0.1206266972802661 0.7287876397828053 0  0.839045334706977 0.6338484449023256 0  0.1026785714285714 0.1875 0  0.1875 0.1025191326530612 0  0.647087651085914 0.56465454646987 0  0.4175806492347585 0.4896150099790182 0  1.124723442875088 0.272006546354114 0  0.9025364992112173 0.3002552609864784 0  1.710459183673469 0.7423469387755102 0  0.2611111111111111 0.8857638888888889 0  1.177286695349859 0.521702157920197 0  0.3359375 0.2578125 0  0.267578125 0.345703125 0  1.107291666666667 0.7350694444444444 0  1.615946089418426 0.6860954641972395 0  1.819940476190476 0.2730654761904763 0  1.75830270586982 0.3919383189517417 0  1.60542025246854 0.2604314953837324 0  1.47529437030095 0.1082834354672917 0  1.407616811984598 0.2515245892897627 0  0.5417644749872034 0.6179405079134659 0  1.292605834233751 0.3891584395767265 0  1.571560171687723 0.9025449465500486 0  0.4948260752512502 0.7974906259153529 0  0.9397899849485198 0.9078383314518984 0  0.8133000292679321 0.08407738095238092 0  1.476686507936508 0.7574404761904762 0  0.1110425383368033 0.5013559892496797 0  0.2112130102898548 0.5094901147101452 0  0.29931640625 0.44091796875 0  1.1875 0.07713293650793651 0  0.4106128246753247 0.0922957251082251 0  1.90625 0.78125 0  1.890625 0.890625 0  0.53125 0.21875 0  0.43359375 0.2903645833333333 0  1.21875 0.90625 0  1.111378205128205 0.8926282051282051 0  1.269897475102475 0.7471924253074262 0  1.029513888888889 0.5989583333333333 0  0.8522579878681762 0.5057260363954713 0  0.4735106227127113 0.9007265262494941 0  0.9590087510503688 0.2195632990669812 0  0.6875 0.9219597779820848 0  1.297061602521838 0.08663184834406668 0  0.8057486862661835 0.4203625921047867 0  1.793269447512567 0.9105428610875859 0  1.192060400311378 0.6922481068149043 0  1.754252759835165 0.5248380520595106 0  0.09102701677793967 0.09104872753828278 0  0.7253449499868028 0.2462465282608479 0  1.484694639796352 0.3053830929854885 0  1.739818341109988 0.1929433411099884 0  1.742395305945888 0.09633901341431061 0  1.5625 0.0712199154988299 0  1.92926747311828 0.1875 0  1.90752469027583 0.09218971500852076 0  1.40768629618205 0.4894347989095132 0  0.08806450569358179 0.4027157738095238 0  1.912105021337907 0.2781978201831695 0  1.213814955489757 0.2975491648102477 0  0.2318947826372472 0.7975197826372472 0  0.06766581632653063 0.8125 0  1.93452380952381 0.4375 0  0.6247824869223918 0.4719944419277 0  1.0625 0.06548008473267392 0  0.3365452571729279 0.6359685188818469 0  0.2379420733423327 0.6299633247212709 0  0.6875 0.06556243656869358 0  0.3236766744217268 0.7978685432210111 0  0.8310171284078489 0.2462432983132972 0  1.934836256037958 0.5625 0  0.9161950191268687 0.08407738095238093 0  0.6255648715181676 0.7943309019754321 0  0.7969452222935728 0.7938361597008705 0  1.049114351431065 0.2049887101224473 0  0.1836020902149457 0.931618241059888 0  1.587837819422641 0.4878002082243154 0  1.656458741565034 0.3715695260907847 0  0.9746733823051021 0.4776637837933646 0  0 0.9375 0  0.0625 1 0  0.08488520408163265 0.90625 0  0.625108507899049 0.6519433794169625 0  0.9179752099882805 0.6730563883756762 0  0.4799911838279058 0.7100598895640633 0  1.79655612244898 0.7264030612244898 0  1.028270112243967 0.4083923893159024 0  0.9066957593018397 0.8292061892030722 0  1.358770484011389 0.6629439624162315 0  1.4375 1 0  1.395391088162172 0.9116794559189138 0  1.482797859881745 0.3908170231280859 0  0.6455330629466264 0.1384632183556422 0  1.029395089402758 0.9190389695086781 0  1.836666296419157 0.607917407161686 0  0.4535978296068884 0.4110171803721298 0  0.06550603987731521 0.5721451437613042 0  0.9569373077851933 0.7631562395310373 0  1.583993153355993 0.1801147415980886 0  0.7937649993393823 0.707466203500723 0  1.824565284334692 0.07855596330344469 0  1.219218268800778 0.4490550565788002 0  1.09246753402758 0.3566001189940414 0  0.7281178214686024 0.5794009834944619 0  0.6932515372564962 0.7422923192533981 0  0.1868917396185889 0.3326442902239 0  1.381389496819767 0.8313197484098837 0  0.3251953125 0.9357638888888888 0  1.822983647514895 0.4443292349237342 0  1.522805799535004 0.579338169867103 0  0.1996769442187233 0.7035837018142242 0  0.07584180090947087 0.6588459491136841 0  1.179616205578152 0.2132648206592699 0  0.4805199872536258 0.5667179735898049 0  0.3858701449073073 0.5665964231522445 0  1.098089669722258 0.8141404887505225 0  1.687233248862278 0.572163739146816 0  1.551166608520145 0.7312353751304908 0  0.4922995523139784 0.0819752238430108 0  2 0.9375 0  0.768368512152681 0.921241957327667 0  1.247199476430077 0.5642976316950705 0  1.6875 0 0  0.6774039677538598 0.307779775489877 0  0.6000141078244342 0.3319476482371208 0  1.434261329029022 0.6895619774012085 0  1.66493947909829 0.2113935814263256 0  1.443093262894167 0.1764378413598336 0  1.402006909638446 0.07557472224679147 0  1.340345392925933 0.2181010093132612 0  0.5554578582348065 0.4342779583340344 0  1.107361224480081 0.551189700840597 0  1.138385583366683 0.4523261983614127 0  0.8533445989779486 0.3620185773637825 0  0.9515078554899268 0.3581664525345664 0  0.5386270525248704 0.9365222029658709 0  0.7385910931871089 0.3834681382026311 0  0.802177695014711 0.1569173507111856 0  1.678649386507641 0.6460608856108409 0  1.321228366282072 0.5614685347415731 0  1.41359183689185 0.3250565808516193 0  0.6954048733751652 0.4501669473459832 0  0.1485611191567167 0.2482653329281137 0  1.3469535863885 0.4493494260445651 0  1.465721499292709 0.9323462488904651 0  0.7981542850547552 0.555986631721179 0  1.538905404408536 0.8372354119916759 0  0.5402362619913743 0.2907759906818941 0  1.544445456917978 0.4294227313618058 0  1.64210730014833 0.927239663021229 0  0.6436701064529 0.8643871094205939 0  1.458142277220564 0.6101822863463986 0  0.4380500880834657 0.8395863885666418 0  0.609775472096462 0.930213850449219 0  0.2582723336415264 0.07535405277673025 0  0.2464725418959271 0.1492463151953984 0  0.3026740927503065 0.1940782140226835 0  0.6136302244057281 0.07244011220286403 0  1.037390873015873 0.760734126984127 0  1.064236111111111 0.6597222222222221 0  0.4095428818227003 0.9357638888888888 0  0.5950820785655451 0.1868339607172275 0  1.261352524897525 0.8210449502049508 0  1.28125 0.9375 0  0.5 0.15625 0  1.9375 0.71875 0  1.927210589804446 0.635671179608893 0  1.9375 1 0  1.626447537183655 0.8588601831331419 0  1.669722968375728 0.8015190092763261 0  1.741107994028916 0.8070548843809463 0  1.204001864890377 0.6215380952542296 0  1.677831627302534 0.06931873288731356 0  0.3125 0 0  1.869908299928041 0.2232403652524313 0  1.348462648995713 0.3483571605131688 0  0.3786180084120425 0.1527303780499803 0  0.3487561798996458 0.06314489251279025 0  0.2360060703178168 0.2849796364162243 0  1.612623216848136 0.4240614066492297 0  0.5625 0 0  1.44829775698497 0.5431703903381939 0  0.6734193446913824 0.2012552484100826 0  1.321327673059477 0.790563647738753 0  0.9661399202258864 0.6245602277896942 0  1.807323292851816 0.3419398170341963 0  0.9999257554414013 0.5392912151029183 0  1.741351399185104 0.457933324954483 0  1.1875 1 0  1.939453125 0.841796875 0  0.8125 1 0  1.15625 0.9414854812476081 0  1.6875 1 0  1.732215719876833 0.9362048860500158 0  0.3490171788168188 0.7041577754578493 0  0.874866
[...]
<PointData  Scalars="f_1539"> 
<DataArray  type="Float64"  Name="f_1539"  format="ascii">0.0000000000000000e+00  0.0000000000000000e+00  1.0000000000000000e+00  1.0000000000000000e+00  1.1223918027852981e-149  -1.6865786895698744e-152  3.0969474871375388e-224  1.3838396124103125e-224  0.0000000000000000e+00  1.0000000000000000e+00  -4.0829909323899302e-80  8.6115949929391355e-77  -4.4871087078371081e-180  2.4366735955113695e-73  -1.9978879577105288e-239  -1.0691877669798233e-127  2.4539381966198549e-252  1.0000000000000000e+00  -6.1381739258367593e-38  1.0000000000000000e+00  -6.0051702684983514e-39  -2.1709432897055543e-112  2.3654094241053617e-145  -5.0375151574797681e-187  1.2210450619833748e-41  4.0593361704763707e-208  2.3113649646647595e-163  -7.8243724680881417e-105  -9.4792822373523920e-36  -3.5603009028908432e-201  -5.0321788111590993e-113  1.5759381402087618e-89  1.8217228463961383e-263  0.0000000000000000e+00  0.0000000000000000e+00  -2.8282533775821707e-255  6.4173138422435717e-189  3.7113293068200794e-59  2.2752151650229024e-166  4.5943198835708276e-74  -3.6244018901975280e-211  2.3323572068003995e-129  6.6128038431943119e-261  -5.7184760172329375e-118  2.4997708643775466e-264  -1.9700642871382667e-229  -8.0290720957506963e-104  1.1481444641558040e-152  6.0434430464499290e-27  -3.0692386351709824e-21  -9.3684362022645603e-246  -5.0451840951155130e-271  -1.4081543327428007e-234  -1.0004238236317281e-180  -5.8024098961638317e-268  -1.8405944253726953e-24  -1.0396550436220013e-50  3.2782088143417511e-92  2.2110329477158099e-185  -1.5061917917033393e-186  8.2172749700270834e-52  1.9873683491531454e-121  -2.4032410924289294e-142  -2.6482939472019628e-227  1.9451368221539618e-72  1.0438014998106895e-281  3.5023771711023046e-67  -1.5436077584347869e-136  5.4116592646220960e-95  -8.3395255561483174e-88  -3.8290907530471236e-208  1.3954467366545734e-160  -5.9586108139434109e-143  -1.1193312107287376e-106  -3.9583336798031323e-103  -5.7034533238548546e-217  7.2987254254072921e-185  -1.8169474770305625e-79  1.4731974564866698e-169  1.9254501319081945e-211  1.8465226759206213e-20  2.7388302576121043e-18  0.0000000000000000e+00  -3.0458899257931020e-88  2.4163354906239994e-198  -7.7516242978602004e-133  -2.4891484439676978e-244  -1.6817523676955336e-250  1.0000000000000000e+00  -2.1578692465055552e-18  -2.5921458892926047e-54  -3.1947141118327786e-44  4.5905268427098094e-148  -6.5366508067606965e-99  6.4287674611266172e-205  1.0525918395512747e-58  5.8035762816502131e-20  4.9240641644913770e-205  -6.7821501494289177e-240  0.0000000000000000e+00  1.0000000000000000e+00  0.0000000000000000e+00  1.2109087715103299e-129  -6.5549658700927083e-167  -4.8620192399256787e-274  0.0000000000000000e+00  1.0000000000000000e+00  -1.2149495674315226e-171  1.0000000000000000e+00  -1.6715018053968700e-58  -6.9186120990029843e-109  -2.8483566049597821e-235  -1.1789872492312412e-275  1.9721487070180471e-275  3.8660655508029824e-167  4.0358609572124674e-281  2.6018895993657415e-268  2.6511360490960553e-194  -6.9795025913177283e-229  -2.8141741069101500e-129  3.2278220289881126e-163  3.7410522441693547e-41  -6.1172345639733699e-251  4.2931530477909099e-119  -2.4797310958523507e-243  -1.6900655919903181e-254  -4.7829433189910730e-128  6.7200603826029687e-56  9.5198601389585644e-29  1.5400047651099433e-36  -4.2508810256117932e-56  4.6404041397622915e-80  -4.4530408731880077e-89  -1.7225511749486280e-211  8.3128194711863296e-102  3.5480277382534541e-64  1.3144702495425372e-219  -2.2322824579969351e-157  1.5221939178018413e-173  -3.8927942111031968e-75  6.6134630659943656e-275  8.2437452206795440e-261  -3.0522231174277526e-247  -5.5583490035438477e-119  2.1082923545457236e-236  1.8469206206853653e-13  7.6518909423724384e-17  4.8529824035434054e-216  3.9257622327174056e-229  -5.3800025517162770e-117  -6.5424482242572275e-132  -3.7346955465088476e-107  1.2336802479702196e-141  -4.6714003050815572e-162  -1.9214258536898540e-225  1.2247974809952462e-154  1.0713392831779954e-194  -1.8393134684228103e-103  -3.1848270774007846e-174  -4.9749450021590375e-32  -4.7098577126382093e-118  1.9407675421472105e-35  1.0391987616964054e-278  -5.8276437980979960e-186  3.6005427435464256e-77  -2.3809232826438513e-36  -8.7183550081139967e-42  4.0848739133427552e-65  4.2744280278821900e-11  -4.2503640916570175e-16  2.9395152876989734e-86  -1.2632391538068767e-278  -2.9141309273476734e-15  -1.1172400683630857e-115  4.5218986282940456e-256  -5.1234896672206622e-280  1.3698225131902815e-10  -3.1452403016568527e-197  2.8067764541466516e-138  2.6240430886813538e-242  -1.4303834993144592e-254  3.6112692303428439e-192  -6.1456659319045405e-244  1.8225228958291512e-172  7.9281183713534895e-10  -1.3937700030269948e-160  1.7636031143411482e-199  1.5333267630450551e-176  -9.6130428138063033e-140  4.8943007355307763e-266  2.4643018269228355e-62  -1.6165950871023478e-51  -2.5714357604099432e-151  0.0000000000000000e+00  -1.5810862083152541e-285  -1.5596639398134071e-277  -1.3256661262983399e-199  8.1915359815793983e-158  6.2024217301213236e-223  -5.0220804502558885e-31  2.9198636742041579e-141  -7.1169632528571798e-159  2.1116901288075249e-93  6.1116317242760182e-90  -1.5617116575376056e-90  2.6421163011564801e-77  4.3892259253553661e-199  2.6653055452484313e-145  -8.1062796483924074e-23  -5.9934496721789072e-228  4.4710418670757194e-283  4.3619234759399710e-152  8.1504106429939092e-61  2.2322269582607848e-174  -3.5512383246263213e-28  -1.3022403295513013e-115  -7.6986939498115478e-135  -2.1261924694082468e-184  -1.1937242316354034e-190  1.3751553511624100e-265  -1.2231013578419572e-93  -4.3594994989323076e-245  2.5889027607283224e-28  1.5193367690241044e-67  4.3060241495417433e-264  1.6148705620226817e-280  2.0786459796735217e-122  -3.4317817755096345e-221  -1.3986202220520311e-237  -8.4182968359319935e-130  -1.8079162488933032e-42  2.1639877578604455e-63  -1.1760669349358621e-225  1.0000000000000000e+00  7.8543985143352082e-181  -5.3192993592259674e-108  1.0344180059526362e-46  -1.7018286860734083e-193  -8.9910860965397295e-208  -1.8158686177559282e-83  4.9942377997292570e-51  -8.8293540246954873e-83  9.3798547840954074e-90  7.1971730029933102e-99  -7.6758130268573159e-211  -2.1439931803641704e-126  -3.9811614903930786e-127  5.3933739265100472e-170  -3.4382624314288893e-155  7.3502613590468456e-218  -2.3637478820497002e-185  1.1320328944752931e-176  1.0851991014091196e-46  2.5667217153914320e-98  5.1606804117100264e-90  -1.1571794787553431e-189  -9.9990342102706572e-272  1.2211459065534025e-97  -1.1964510174521990e-80  -1.0397031329029573e-172  4.2847501196101221e-69  -7.0159224913834619e-214  3.2933047326311073e-69  -7.3321821124628236e-52  -5.3399381510149664e-196  6.9079848857668146e-77  -1.5975518306006320e-224  4.1473938607609307e-208  -9.9174257274804807e-259  1.5294433140861664e-260  -1.4875686508931066e-249  -1.5600605826907504e-204  2.7852068790250893e-138  -3.9007604217926039e-138  -2.3335544257596211e-232  2.4709473676672993e-207  6.9918570338400058e-108  -8.9931431143663812e-107  1.1557788772816955e-223  -2.7015189445660074e-09  4.4152251958657673e-11  8.4057390478905403e-11  -1.8592084882171068e-57  8.2260572384036945e-48  -2.9558402654065561e-37  2.4332457584742428e-117  2.8669679750712156e-50  6.6424880375496384e-253  -3.6525209787379104e-20  -2.4490952450886223e-97  -3.6989978322160746e-239  1.1073507811554716e-245  4.1272839052002918e-257  1.1358066930929026e-58  2.1719955642345478e-212  2.1738962466746806e-77  3.0338474955711456e-197  7.8925708498104390e-98  4.5589548208397358e-149  -1.6396155848933469e-28  8.4077155278945772e-143  -3.0463866708848188e-40  -2.6749967781834785e-123  4.0083625021623760e-07  -1.4461634262011662e-178  3.9402730542060584e-126  -3.8396560418860848e-51  -6.9457174083123625e-40  1.2603553844864714e-241  -1.4128659489799460e-167  3.6511464148760282e-179  0.0000000000000000e+00  1.0006283178797811e-219  5.8080101966571532e-10  8.7575644792938459e-267  -1.6666421286488610e-210  6.0567048240496852e-163  -9.3021241066961012e-11  1.0000000000000000e+00  1.6358873802259362e-68  1.1900184952896392e-113  4.7756546094825747e-149  3.5046631586462299e-138  3.4647374550451628e-158  2.9431183332801020e-61  -5.7166846914300144e-52  1.0517600229652339e-67  -3.5366295606512483e-164  3.2713570310671737e-293  0.0000000000000000e+00  1.0882767905738321e-234  -2.3231667272696421e-280  9.1827881344217492e-241  -8.3353169872992624e-50  -1.7634100585626485e-183  -9.4304118272081171e-200  -5.5291555576361646e-155  1.3999180925969892e-129  -7.9254789620448195e-103  2.8591307624639906e-121  2.4853796542242870e-143  6.2973187603541298e-281  6.2309050671564746e-28  -1.4003565295773295e-09  5.3089251714838386e-213  -4.8448327914792760e-249  2.6276048723771321e-29  0.0000000000000000e+00  -1.4639866371643754e-161  1.0000000000000000e+00  1.6108642891518110e-193  1.0000000000000000e+00  1.0000000000000000e+00  1.0000000000000000e+00  2.5350313922510452e-67  3.6565204352515658e-103  1.7829984770242578e-194  5.1867774108572129e-120  4.4798339130701038e-177  1.2982324051349795e-137  9.4554501200572193e-162  -3.1999048715940243e-69  -2.7725535581578897e-272  0.0000000000000000e+00  0.0000000000000000e+00  -3.0019235994330022e-28  0.0000000000000000e+00  1.2615176505274936e-264  0.0000000000000000e+00  -1.0633948402339851e-85  9.9079924562298042e-234  2.0784126842540474e-107  1.0000000000000000e+00  1.0000000000000000e+00  4.7171052433806605e-283  -4.9647972854064808e-190  -1.0155605537547699e-81  3.6567435180643700e-39  1.2220016229662024e-176  2.9262075582752488e-235  -9.7215969976581094e-240  2.5505554720983672e-263  -1.6656722698927266e-229  4.6469409156727867e-20  -2.0128141901512185e-255  -5.5243731320551026e-270  8.0197957414819879e-284  -1.6248618161046098e-103  4.4104247735621304e-228  -3.9420474550976125e-52  -1.5131226383044399e-233  1.9345284668449763e-235  1.9257915346905340e-150  -7.8472390075995097e-215  8.3608800617283715e-166  -4.0534578691646035e-204  -2.4183102687964924e-192  -7.2218070808174213e-112  -5.7922279572378781e-24  3.3761083375786549e-269  -1.1933128520389104e-97  1.9007559612604556e-224  -9.1562018275521999e-71  -7.9150405532857806e-108  -1.6377201432230216e-87  2.0645140082585293e-146  -5.9020821475035658e-268  -1.6880793727557130e-275  2.7397459588215462e-113  -6.0418030020863911e-287  -4.7525346160908649e-278  3.2433064617458122e-11  5.7353934117657252e-133  -5.2378467477441876e-203  9.8203917465823846e-138  -1.4837066537431475e-172  3.5288857080784964e-180  -6.3009427584582221e-129  -2.1466621520285193e-136  -1.0063946317068022e-123  3.8327462123738986e-205  3.7178405531695162e-152  -1.2824934040512539e-29  2.4076308592972004e-60  -9.3398191217974567e-98  -8.1716512515064851e-34  7.2058633152525135e-18  1.6828811009135172e-35  -1.0704639716893306e-182  4.7013131890348116e-112  -7.3251132784572724e-122  -1.0066355771480688e-268  9.7246697602531825e-59  9.2530586558996953e-168  -3.6374282302656593e-92  -6.7152000433791798e-260  -6.2024999976179831e-252  -1.0556063730016276e-242  2.3540351735832474e-80  1.5458378313261616e-183  -2.5171536631262525e-150  -8.2368854478438060e-113  2.3077602303338995e-95  -7.0310193335144937e-37  -1.4486244922673896e-31  -3.3538220549151498e-110  3.4597064893396130e-22  -1.8269458801389345e-52  4.9688955670197850e-252  -1.4883457822682103e-88  -2.9246200321429342e-248  9.2981705217333890e-64  1.6492624646643391e-254  3.8355124489133863e-253  1.0044844615758565e-38  4.9799418575287769e-45  -3.1969124974044558e-158  -2.0516866444861968e-187  6.3834911533286421e-44  8.0288823857068216e-113  -5.1226169482507857e-128  -9.0338893654577007e-123  -2.7684126213027551e-245  -5.4869089504913160e-251  -1.5519126200542055e-178  9.1996865591876496e-283  1.5770568414213467e-272  2.9838385359229469e-213  1.3584116367037701e-125  2.1098683698181932e-16  -1.2132089565993076e-24  -3.7901993688710437e-149  -1.4034288165150670e-154  3.0333341456671356e-228  -8.2539405351340993e-264  1.9062377326649194e-86  -2.1556611247486861e-33  6.3718647596962741e-259  1.5576270042645840e-137  9.5037935675341383e-99  5.1159787681215851e-16  3.5952850909289001e-135  -2.9762221213482064e-187  -5.3553984437116724e-63  -2.4086249492199135e-71  1.5114327555512357e-66  -7.1294528084588720e-81  2.1487339460485159e-91  -6.7990604258201693e-175  3.9092105476635615e-211  -1.7902866052605183e-218  3.9510043320879988e-67  2.5046386293764356e-163  -2.7029393356610846e-222  5.4245390739649156e-30  5.7187435370677965e-226  3.2144679135299709e-226  -1.7222838295167164e-215  2.8522121504543326e-216  5.8128042534302726e-106  1.0172560489490239e-179  -1.7318931205287940e-135  1.5413370708726536e-219  -2.3800777202572395e-170  1.0271306280419091e-170  1.6415304179565559e-266  1.4282128353060621e-96  -1.7557182604282395e-244  -3.1519601712944969e-73  -4.6813287856549523e-65  1.2081176762077359e-42  -1.0321063968910559e-128  -4.9277721982738479e-272  -2.5735964387339793e-275  6.1764164828375435e-32  2.0990577025371053e-193  2.3917349289867780e-286  2.9070691263720003e-44  -1.1001305263891833e-266  1.1275023629350288e-250  -1.9225678247581994e-282  4.2120307477460376e-285  8.6472732559310309e-169  -2.0196091984126223e-170  8.4784325435958672e-278  -3.7935990017409075e-76  -3.1752682865446595e-76  1.0757735505344040e-106  -1.5329681375881452e-269  -1.0626883891332814e-244  -4.6091016666244229e-235  5.7269453815078282e-212  5.1350920980456739e-134  8.8785235691365944e-48  -1.8063257643177744e-96  8.5670531619959788e-276  -1.0851974898666099e-194  1.4935228225071425e-187  6.7378593828504699e-251  3.3052326895383056e-242  1.0187976037336701e-228  7.3510579512880826e-121  1.7151267276190977e-41  8.4687072851752473e-46  3.8992035168627083e-198  -4.2166935280761447e-188  2.5677820325644816e-248  1.9824133894829912e-228  1.7909886353886500e-33  -2.4648836500546804e-263  8.5853225884236705e-125  -1.8386372213103106e-279  -2.7258608292107711e-208  -1.8556334635664543e-134  4.2573222902402528e-144  1.1310250212506321e-237  1.3335833636192153e-229  -1.0868335504596400e-53  2.2194226975626348e-15  -1.8515314563883740e-07  -1.6241860295743795e-114  6.2209206625831622e-111  2.7313354057613375e-216  -6.2346985604324423e-209  -4.0566017743173804e-118  9.1793016556147480e-59  1.9444702484644766e-148  9.9350455022036327e-37  -4.3917924820151174e-163  -6.4076663354314427e-151  -9.2753758137164919e-84  -1.1304811859780774e-07  -3.5293414116824376e-08  -5.5150308664646918e-160  -6.1970215264035049e-30  -3.7291819296789142e-87  4.3065236247897294e-16  8.3024065744974415e-19  2.1925220186987243e-192  6.7479665057431141e-179  3.6873568175402092e-285  -1.3219699126947153e-285  5.3939275613390032e-246  -8.2095416491674389e-252  -6.3373489156478295e-10  -3.1082808739514434e-233  -8.0958419866286440e-163  -1.6187657663407773e-46  7.1676098860299905e-184  -1.4600047593875822e-290  -5.7019260726428669e-100  4.8799634070131557e-72  -1.5890486327373112e-56  -5.8484073130536355e-286  -1.3420696103568523e-255  3.6096973415163573e-85  -6.7344094895650859e-22  6.8311593638127988e-259  -7.1787695113389485e-205  2.0116411362899545e-121  -5.2346138443554327e-264  2.3155049109799770e-220  -6.3825330258218589e-146  9.7647581465298661e-286  -6.3022538820715489e-243  -9.8114785962384608e-10  5.2497377746355843e-08  1.4588120058573506e-08  -7.6140187784316778e-83  -1.1897158710069171e-73  -6.8758540912357790e-73  5.7310275516100317e-20  5.9407655520025093e-175  -3.4221634738995866e-105  -3.2010991097800185e-116  -2.5112668647695431e-155  7.6967542371849010e-163  3.9844059706037664e-166  4.1441910374564691e-162  -1.5777611501055685e-154  2.1076459190029157e-272  2.2358517869036713e-259  2.9119495570303202e-32  -1.3517956500442473e-265  -4.6168569231329302e-84  -1.7526434779117854e-79  2.6982129567422069e-87  7.7286134754965624e-205  -1.4534385554295288e-202  2.3798993710330347e-193  -4.0840615386467903e-256  -1.7568777538345234e-18  1.8116109371787769e-111  -2.0098049650425829e-122  1.8764695979135935e-268  1.4870716651880503e-157  -1.3091187309164914e-157  5.0473085395136712e-144  5.3246702468629165e-87  3.3342170787683699e-288  2.4810718951647457e-230  -1.3272759682446595e-106  -7.4234426682184773e-147  8.1341757641228320e-143  -2.1867098932353525e-147  2.7771814825471569e-166  1.0007896390880233e-147  -5.9947409659696690e-24  -2.7630673156201027e-17  1.0832301160457252e-195  -1.6957379061464510e-07  -1.1905942016791093e-253  -2.2687664414479046e-127  1.2357694385767749e-269  2.3286721367181408e-82  2.7555154877359918e-93  -8.0825428695693362e-189  -2.7080511521763672e-188  -3.0763773591384734e-199  3.7215101713227446e-45  9.0685204353658037e-143  -6.6907598623322677e-144  -4.4691353969150257e-201  -7.8049275454030298e-157  -6.8221361783246866e-14  1.8758177475112222e-05  -4.2060309985063835e-62  1.2143794142348458e-197  8.4849431726492590e-131  1.3179966718634983e-179  2.2441016129682633e-227  -5.6248705195610953e-52  -1.6468141276258701e-179  7.0848758712412829e-171  -3.2720686792820001e-182  4.4957466786495307e-133  5.1940706257515440e-06  1.9303674008661636e-95  1.5796273007879393e-57  -3.0670311238172638e-68  1.2195148803650306e-224  -3.7491710474997531e-210  -5.4615574979686924e-221  3.4720585284617226e-05  2.3290976730724770e-06  -3.4082521832483598e-124  3.8802169490103110e-05  3.5636962198108227e-26  1.2843563996121412e-70  3.0592473029638132e-160  1.0430183462001206e-161  -5.9986068222734901e-78  2.5784106331801258e-169  1.5122412672189641e-245  8.3481261632002870e-240  -9.3391219347008162e-30  2.7226497773076104e-146  1.3686519052592426e-137  1.6048850860142490e-37  -1.3435030701545217e-25  1.3347039849487046e-255  5.4881937057893635e-145  1.0210032831460210e-277  -1.4477352373264608e-284  -4.4042062366625377e-153  5.2490522597176178e-53  7.4640742100417326e-239  -8.0426970681364574e-285  8.8381161274108476e-53  9.9921669930461455e-56  5.8386426014300258e-108  -1.5517206773350725e-191  7.1289711394005695e-69  4.2716656714250754e-90  -8.4593989096353288e-229  -6.8937674513206951e-223  3.6551280064597819e-231  -4.7116799695213197e-176  7.9584837225554797e-173  -1.1244891717812382e-169  -9.7687120420462816e-205  -9.1441328415003146e-259  1.8247418266469928e-139  1.7500532735146902e-134  7.8321211164007917e-167  -4.0179997152028901e-275  -3.8418222092846234e-114  -1.4482003535943083e-59  1.4256873223302842e-124  4.5131648144960586e-55  4.3481389311762636e-236  1.7522071011502900e-111  -3.8224307144119156e-94  1.1831970912909066e-80  -4.3396519756976775e-70  1.1357015082574082e-215  1.8813462719609322e-191  8.8681842866102601e-196  -1.2411654030182480e-160  -2.0470043339208769e-164  -1.9782271113970037e-91  9.2575039503715631e-14  -8.3851379547339777e-105  1.3227696973611932e-219  7.1148752177951161e-48  -4.2200714147113853e-84  -2.5649030480900592e-179  -1.9635437942465501e-276  -2.0809239332528541e-175  1.6427587114340015e-281  -9.8918141150744487e-104  1.1230084696031821e-240  1.1858780181900334e-202  1.1641673866790361e-207  3.8538999869718048e-211  -6.0363402858204216e-206  6.9373357982904050e-196  7.1779808143188903e-194  8.9930377833352547e-35  3.2154373884550815e-223  3.0929063300902399e-119  -8.7689812022873402e-121  -2.2155771063911649e-109  8.2871596423877107e-160  -4.0412695692121243e-12  -2.2821790633198883e-210  4.1290207425489903e-55  -1.7525076183936454e-237  -1.5331490621588794e-137  2.9794380863437722e-86  -1.5987213250267317e-269  1.9565720031530102e-239  3.4635764733104356e-205  -3.9607706253586442e-36  1.1985707649925205e-24  5.4795521216223194e-255  -1.6832371091446102e-43  -1.4148212381784955e-38  8.9715411767432999e-277  3.1452875618136841e-145  -1.3129262323903325e-157  -3.5012533748635524e-25  1.1049431478584904e-80  -3.5707556579646442e-71  -6.3828029424064251e-235  -9.4148008980754388e-51  -2.3739158845649957e-49  2.1218060737959057e-236  -5.5874497633842948e-69  -1.6853575813434899e-59  -1.5252857842129049e-59  7.1213677173394984e-112  -9.5595754430152741e-57  3.3420