<?xml version="1.0"?>
<VTKFile type="UnstructuredGrid"  version="0.1"  >
<UnstructuredGrid>
<Piece  NumberOfPoints="2064" NumberOfCells="3842">
<Points>
<DataArray  type="Float64"  NumberOfComponents="3"  format="ascii">0 0 0  0.4 0 0  0.4 0.4 0  0.4 2 0  0.4 2.4 0  0 2.4 0  0 1.2 0  0.09442719099991592 1.2 0  0.04999999999991419 0 0  0.09999999999976655 0 0  0.1499999999996174 0 0  0.1999999999994737 0 0  0.2499999999996012 0 0  0.2999999999997341 0 0  0.3499999999998725 0 0  0.4 0.04490054755780609 0  0.4 0.08728102288719632 0  0.4 0.127282861984852 0  0.4 0.1650395793634534 0  0.4 0.2006771614573222 0  0.4 0.2343145678202487 0  0.4 0.2660640514334936 0  0.4 0.2960315713318087 0  0.4 0.3243171534442337 0  0.4 0.3510151778607238 0  0.4 0.3762147593669765 0  0.3838325644673298 0.4184519041479398 0  0.3683953300346307 0.4368060584116434 0  0.3536615979029293 0.4550435590956501 0  0.3396051856135377 0.473147237722841 0  0.3262004928426353 0.4911015157475286 0  0.3134225038405827 0.5088923356151951 0  0.3012468350136632 0.5265070301161103 0  0.289649727202514 0.5439342653019726 0  0.2786080797806054 0.5611639229961951 0  0.2680994518128559 0.5781870282993612 0  0.2581020577925817 0.594995687384956 0  0.2485947966955289 0.6115829684453767 0  0.2395572159226798 0.6279428912420084 0  0.2309695402541045 0.6440703056409012 0  0.2228126456010115 0.6599608661499604 0  0.2150680649468926 0.6756109488118054 0  0.2077179652425745 0.6910176244172292 0  0.2007451581747424 0.7061785635724216 0  0.1941330685533778 0.7210920296031775 0  0.187865731362808 0.7357568136786556 0  0.1819277784059361 0.7501721918577611 0  0.1763044223842591 0.7643378897548474 0  0.1709814462523012 0.7782540354567948 0  0.1659451816940687 0.7919211416000106 0  0.1611825004958043 0.8053400559415214 0  0.1566807969567119 0.8185119361740301 0  0.1524279714485859 0.8314382242497815 0  0.1484124145310832 0.8441206213966692 0  0.1446229953612439 0.8565610509978405 0  0.1410490406726472 0.8687616532651306 0  0.1376803237536894 0.8807247502294573 0  0.1345070480820316 0.8924528295474728 0  0.1315198313379682 0.9039485300761398 0  0.1287096917422226 0.9152146212945773 0  0.1260680347252623 0.926253982770195 0  0.1235866354816217 0.9370696032148178 0  0.1212576294634056 0.9476645488952582 0  0.1190734945680743 0.9580419699947785 0  0.1170270419973136 0.9682050709600152 0  0.1151114007074783 0.9781571124265547 0  0.1133200055160031 0.9879013993486245 0  0.1116465857084123 0.9974412684028026 0  0.1100851540973415 1.00678007446057 0  0.1086299919107812 1.015921205370188 0  0.1072756432488249 1.024868042116264 0  0.1060168996208661 1.033623982063629 0  0.1048487921770971 1.042192417627859 0  0.1037665809790429 1.050576736266659 0  0.1027657469680525 1.058780303045589 0  0.1018419796222241 1.066806480626017 0  0.1009911707048814 1.074658604354542 0  0.100209404358178 1.082339989509986 0  0.09949294970732381 1.089853919786047 0  0.09883825188846673 1.097203654372538 0  0.09824192517424879 1.104392417551853 0  0.09770074530898887 1.111423399342931 0  0.09721164246300873 1.118299753112525 0  0.09677169442723854 1.125024593837347 0  0.09637812005447888 1.131600997033756 0  0.09602827298084238 1.138031997847958 0  0.09571963585538867 1.144320585137491 0  0.09544981410873254 1.150469709236281 0  0.09521653091090854 1.156482271096842 0  0.09501762139786152 1.162361132495572 0  0.09485102799585166 1.168109105493136 0  0.09471479534921778 1.17372895658593 0  0.09460706563777421 1.179223407979745 0  0.0945260742084173 1.184595133154879 0  0.09447014520952024 1.18984676120699 0  0.09443768756826221 1.194980871205597 0  0.09443806302859437 1.205108106364119 0  0.0944729919958105 1.210484287883107 0  0.09453577090937082 1.216142490300296 0  0.09463066380701091 1.222097360381834 0  0.0947624594889982 1.228364272753548 0  0.09493653111586542 1.234959359990207 0  0.09515890239686042 1.241899545953364 0  0.09543632088446197 1.249202574930454 0  0.09577633904503413 1.256887038135555 0  0.09618740432963668 1.264972406761361 0  0.0966789587196919 1.273479058714701 0  0.09726154875905446 1.282428302408976 0  0.09794694731159104 1.291842400140276 0  0.09874828856820561 1.301744593368398 0  0.09968021618774325 1.312159110985963 0  0.1007590472181439 1.323111179510956 0  0.1020029535614844 1.334627032832841 0  0.1034321610687219 1.346733904327509 0  0.1050691685317944 1.359460008750532 0  0.1069389890698906 1.372834517030006 0  0.1090694154101453 1.386887516567777 0  0.1114913103057413 1.401649949581689 0  0.1142389217184392 1.41715351493907 0  0.1173502356392664 1.433430591737466 0  0.1208673508568801 1.450514074661389 0  0.1248368950934375 1.468437217466946 0  0.1293104684030106 1.487233394167611 0  0.1343451326727159 1.506935853147407 0  0.1400039326793197 1.527577381161243 0  0.1463564603139997 1.549189915865717 0  0.1534794513310238 1.571804055040348 0  0.1614574289723265 1.59544850275497 0  0.1703833808249424 1.620149393439201 0  0.1803594611147896 1.645929471137086 0  0.191497735209273 1.672807165289779 0  0.2039209237677404 1.700795448389207 0  0.2177631713050063 1.729900546040858 0  0.2331708044748657 1.760120417463775 0  0.2503030499535754 1.791442962663554 0  0.2693327082756052 1.823843972070083 0  0.2904467283334415 1.857284740872639 0  0.313846664572799 1.891709354564414 0  0.3397489262043362 1.927041546768065 0  0.3683847768932553 1.963181136608806 0  0.4 2.044900547557741 0  0.4 2.087281022887292 0  0.4 2.127282861984825 0  0.4 2.165039579363555 0  0.4 2.200677161457211 0  0.4 2.234314567819979 0  0.4 2.266064051433231 0  0.4 2.29603157133185 0  0.4 2.324317153444571 0  0.4 2.351015177861111 0  0.4 2.376214759367253 0  0.3762147593670869 2.4 0  0.3510151778609575 2.4 0  0.3243171534446052 2.4 0  0.296031571332334 2.4 0  0.2660640514341884 2.4 0  0.2343145678211326 2.4 0  0.200677161458414 2.4 0  0.165039579364376 2.4 0  0.1272828619855727 2.4 0  0.08728102288768802 2.4 0  0.04490054755804584 2.4 0  0 2.351390275785884 0  0 2.304552731578128 0  0 2.259422753650416 0  0 2.215938095776203 0  0 2.174038769221176 0  0 2.133666973505663 0  0 2.094767030761372 0  0 2.057285274882487 0  0 2.021169996669198 0  0 1.98637139041763 0  0 1.952841448848309 0  0 1.920533905270079 0  0 1.889404216687487 0  0 1.859409431581987 0  0 1.830508174253126 0  0 1.802660578364919 0  0 1.775828229457246 0  0 1.749974120892053 0  0 1.725062579668715 0  0 1.701059245975984 0  0 1.677931008439425 0  0 1.655645964869692 0  0 1.634173369332893 0  0 1.613483613383766 0  0 1.593548147670557 0  0 1.574339474861461 0  0 1.555831095205801 0  0 1.537997486363343 0  0 1.520814036475161 0  0 1.504257050792596 0  0 1.488303689738582 0  0 1.47293194468338 0  0 1.458120611126952 0  0 1.443849259716804 0  0 1.430098202826807 0  0 1.416848471990003 0  0 1.404081790973001 0  0 1.391780548456538 0  0 1.379927775838647 0  0 1.36850712315392 0  0 1.357502837034801 0  0 1.346899736933002 0  0 1.336683196700207 0  0 1.326839124824946 0  0 1.317353941220879 0  0 1.308214562093801 0  0 1.299408378803474 0  0 1.290923246392895 0  0 1.282747456144235 0  0 1.274869735093633 0  0 1.267279214098316 0  0 1.259965423665274 0  0 1.252918273094548 0  0 1.246128044148505 0  0 1.239585367106648 0  0 1.23328121948346 0  0 1.227206903233693 0  0 1.221354040630691 0  0 1.215714557462727 0  0 1.210280675039678 0  0 1.205044896789031 0  0 1.194955103210978 0  0 1.189719324960339 0  0 1.1842854425373 0  0 1.178645959369345 0  0 1.172793096766355 0  0 1.166718780516599 0  0 1.160414632893424 0  0 1.15387195585158 0  0 1.147081726905552 0  0 1.14003457633484 0  0 1.132720785901815 0  0 1.125130264906515 0  0 1.117252543855931 0  0 1.109076753607291 0  0 1.100591621196733 0  0 1.091785437906426 0  0 1.082646058779372 0  0 1.07316087517533 0  0 1.063316803300096 0  0 1.053100263067329 0  0 1.042497162965573 0  0 1.031492876846507 0  0 1.020072224161836 0  0 1.008219451544004 0  0 0.9959182090276039 0  0 0.9831515280106697 0  0 0.969901797173938 0  0 0.9561507402840164 0  0 0.9418793888739494 0  0 0.9270680553176084 0  0 0.9116963102624975 0  0 0.8957429492085807 0  0 0.8791859635261186 0  0 0.8620025136380454 0  0 0.8441689047957012 0  0 0.8256605251401634 0  0 0.8064518523311963 0  0 0.7865163866181252 0  0 0.7658266306691419 0  0 0.7443540351324957 0  0 0.7220689915629243 0  0 0.6989407540265372 0  0 0.6749374203339855 0  0 0.6500258791108374 0  0 0.6241717705458441 0  0 0.5973394216383467 0  0 0.5694918257499931 0  0 0.5405905684209703 0  0 0.5105957833153173 0  0 0.479466094732611 0  0 0.4471585511542315 0  0 0.4136286095847471 0  0 0.3788300033330131 0  0 0.3427147251195944 0  0 0.305232969240564 0  0 0.2663330264961172 0  0 0.225961230780293 0  0 0.1840619042249165 0  0 0.1405772463503563 0  0 0.09544726842240769 0  0 0.04860972421439458 0  0.04813671057256446 1.197473279821492 0  0.04895543136439754 1.151270788221793 0  0.04738437551928104 1.245081661106426 0  0.2256341401927007 0.335035210600554 0  0.0512759040765693 1.103565270882211 0  0.1570277503437201 0.4710961631110478 0  0.04891680688198799 1.294160758757891 0  0.05568190394618851 1.057427469737321 0  0.05765554841188782 1.003616718285677 0  0.1206184164719817 0.6010910013922988 0  0.2174958646397733 2.217495864639892 0  0.06616240375728431 1.175917411653735 0  0.09608236746672907 0.7063802628109249 0  0.02794287230014219 1.219415480129978 0  0.06431259901636358 1.220489754068911 0  0.02794535307324082 1.174496345043953 0  0.06296426494091534 0.9414057385563683 0  0.08050882020181049 0.7988485989880517 0  0.0719103235923903 0.86993553852932 0  0.1823275170984414 2.037281568815077 0  0.04971518892196945 1.344501211918876 0  0.2490207822396599 0.1848651832981602 0  0.052494558421043 1.396392612075255 0  0.1344185702276811 1.870543477222118 0  0.07221302203322316 1.197443967850841 0  0.06629456243276534 1.127713702579542 0  0.03033713389389925 1.127495065716931 0  0.02186182423217333 1.197477551605483 0  0.06191152475830487 1.458801491557402 0  0.1109984100569154 1.762901175174654 0 
[...]
<PointData  Vectors="f_351"> 
<DataArray  type="Float64"  Name="f_351"  NumberOfComponents="3" format="ascii">0.0000000000000000e+00 0.0000000000000000e+00 0.0000000000000000e+00  0.0000000000000000e+00 0.0000000000000000e+00 0.0000000000000000e+00  -1.5667378220050750e-03 2.2800441041813911e-03 0.0000000000000000e+00  -1.5791920901137234e-03 9.7707697253260367e-02 0.0000000000000000e+00  0.0000000000000000e+00 1.0000000000000001e-01 0.0000000000000000e+00  0.0000000000000000e+00 1.0000000000000001e-01 0.0000000000000000e+00  -3.1111167857273539e-08 5.0019122654558289e-02 0.0000000000000000e+00  -5.8610386587112841e-03 5.0022313041750081e-02 0.0000000000000000e+00  0.0000000000000000e+00 0.0000000000000000e+00 0.0000000000000000e+00  0.0000000000000000e+00 0.0000000000000000e+00 0.0000000000000000e+00  0.0000000000000000e+00 0.0000000000000000e+00 0.0000000000000000e+00  0.0000000000000000e+00 0.0000000000000000e+00 0.0000000000000000e+00  0.0000000000000000e+00 0.0000000000000000e+00 0.0000000000000000e+00  0.0000000000000000e+00 0.0000000000000000e+00 0.0000000000000000e+00  0.0000000000000000e+00 0.0000000000000000e+00 0.0000000000000000e+00  -6.0230808233779128e-04 3.9728647987269459e-04 0.0000000000000000e+00  -8.8706490119585841e-04 6.8882162204133386e-04 0.0000000000000000e+00  -1.0851227794361630e-03 9.2346380020892280e-04 0.0000000000000000e+00  -1.2241324151166836e-03 1.1333881035696146e-03 0.0000000000000000e+00  -1.3245889662666351e-03 1.3407811269829932e-03 0.0000000000000000e+00  -1.3985826239893591e-03 1.5327559316920163e-03 0.0000000000000000e+00  -1.4567512003130325e-03 1.7081977413654185e-03 0.0000000000000000e+00  -1.5082252376797498e-03 1.8654536409682409e-03 0.0000000000000000e+00  -1.5425161605688246e-03 2.0062594828949929e-03 0.0000000000000000e+00  -1.5735819636294235e-03 2.1207305981372731e-03 0.0000000000000000e+00  -1.5805048230041882e-03 2.2170925885313690e-03 0.0000000000000000e+00  -1.5716457545072208e-03 2.3637658636921129e-03 0.0000000000000000e+00  -1.5806602594505249e-03 2.4912287830725090e-03 0.0000000000000000e+00  -1.5828982612972108e-03 2.6578742617979737e-03 0.0000000000000000e+00  -1.5976617900014386e-03 2.8523772245098683e-03 0.0000000000000000e+00  -1.6168226959417673e-03 3.0656128221223954e-03 0.0000000000000000e+00  -1.6430838026686033e-03 3.3047842700943417e-03 0.0000000000000000e+00  -1.6747419923994230e-03 3.5711447829920007e-03 0.0000000000000000e+00  -1.7237584382654980e-03 3.8519737204694587e-03 0.0000000000000000e+00  -1.7733881843684780e-03 4.1573422556691947e-03 0.0000000000000000e+00  -1.8303972131067936e-03 4.4747018641015657e-03 0.0000000000000000e+00  -1.8904565708633342e-03 4.8146097978016729e-03 0.0000000000000000e+00  -1.9613017814563193e-03 5.1760648170318859e-03 0.0000000000000000e+00  -2.0280587187934069e-03 5.5654642757259308e-03 0.0000000000000000e+00  -2.1120643198560881e-03 5.9575365020014034e-03 0.0000000000000000e+00  -2.1976062263564344e-03 6.3871904352556935e-03 0.0000000000000000e+00  -2.2921726784409535e-03 6.8230694484880143e-03 0.0000000000000000e+00  -2.3815162938662236e-03 7.2863525912239199e-03 0.0000000000000000e+00  -2.4887098327493686e-03 7.7683087672464944e-03 0.0000000000000000e+00  -2.5673738565676609e-03 8.2809222759623272e-03 0.0000000000000000e+00  -2.6816666731952926e-03 8.8035926168755409e-03 0.0000000000000000e+00  -2.7768062659182199e-03 9.3571800568058808e-03 0.0000000000000000e+00  -2.8988470375573348e-03 9.9189902943588003e-03 0.0000000000000000e+00  -2.9899789071072616e-03 1.0516026184916013e-02 0.0000000000000000e+00  -3.0952053945656256e-03 1.1121941433572728e-02 0.0000000000000000e+00  -3.2060333035428715e-03 1.1764049692808034e-02 0.0000000000000000e+00  -3.2949876416590177e-03 1.2433302934780359e-02 0.0000000000000000e+00  -3.4156688499777004e-03 1.3106216813973429e-02 0.0000000000000000e+00  -3.5377361093598373e-03 1.3814104923124857e-02 0.0000000000000000e+00  -3.6294524635204486e-03 1.4541618722767134e-02 0.0000000000000000e+00  -3.7390190561328186e-03 1.5279077653073587e-02 0.0000000000000000e+00  -3.8314400026759525e-03 1.6053729760439242e-02 0.0000000000000000e+00  -3.9605399816460057e-03 1.6827450344372021e-02 0.0000000000000000e+00  -4.0650344931341528e-03 1.7627953694413431e-02 0.0000000000000000e+00  -4.1716885004443325e-03 1.8457914908341842e-02 0.0000000000000000e+00  -4.2477585160893075e-03 1.9296901763166834e-02 0.0000000000000000e+00  -4.3407518163207925e-03 2.0147300751468717e-02 0.0000000000000000e+00  -4.4201930352321256e-03 2.1024062541979655e-02 0.0000000000000000e+00  -4.5346291257411468e-03 2.1896539449364625e-02 0.0000000000000000e+00  -4.6277011151683884e-03 2.2784086406922359e-02 0.0000000000000000e+00  -4.7165383734983106e-03 2.3693077574101794e-02 0.0000000000000000e+00  -4.7849123351769987e-03 2.4610987256783949e-02 0.0000000000000000e+00  -4.8563596535476528e-03 2.5522616334342833e-02 0.0000000000000000e+00  -4.9490936400412170e-03 2.6435185253232470e-02 0.0000000000000000e+00  -5.0151497566669027e-03 2.7368600821478913e-02 0.0000000000000000e+00  -5.0926190428152666e-03 2.8288133258457044e-02 0.0000000000000000e+00  -5.1673953969964166e-03 2.9220946968891829e-02 0.0000000000000000e+00  -5.2264811848784683e-03 3.0162910381996942e-02 0.0000000000000000e+00  -5.2808651298934658e-03 3.1084437252017785e-02 0.0000000000000000e+00  -5.3438213639433801e-03 3.2012085064350035e-02 0.0000000000000000e+00  -5.3916527687570557e-03 3.2943334150115480e-02 0.0000000000000000e+00  -5.4462152009838016e-03 3.3859051647810827e-02 0.0000000000000000e+00  -5.4861924906887361e-03 3.4777696078728403e-02 0.0000000000000000e+00  -5.5239184445166111e-03 3.5691886901162276e-02 0.0000000000000000e+00  -5.5703235320113207e-03 3.6585122564530927e-02 0.0000000000000000e+00  -5.6041715578223324e-03 3.7483208203164003e-02 0.0000000000000000e+00  -5.6435508118466296e-03 3.8359634319691506e-02 0.0000000000000000e+00  -5.6761705207794486e-03 3.9227493960285895e-02 0.0000000000000000e+00  -5.7074445897753543e-03 4.0080544143428209e-02 0.0000000000000000e+00  -5.7279473197469413e-03 4.0929168747250125e-02 0.0000000000000000e+00  -5.7563379937956658e-03 4.1765025189937140e-02 0.0000000000000000e+00  -5.7739559608669588e-03 4.2591148428234478e-02 0.0000000000000000e+00  -5.7892569155661919e-03 4.3398699438937649e-02 0.0000000000000000e+00  -5.8080929807347624e-03 4.4190792831084118e-02 0.0000000000000000e+00  -5.8224508384306147e-03 4.4968385902660168e-02 0.0000000000000000e+00  -5.8306200731710056e-03 4.5739055459315475e-02 0.0000000000000000e+00  -5.8394349520274700e-03 4.6487746124287431e-02 0.0000000000000000e+00  -5.8479888530900475e-03 4.7223629094862954e-02 0.0000000000000000e+00  -5.8527612068685125e-03 4.7948746572663389e-02 0.0000000000000000e+00  -5.8576185729772969e-03 4.8653752378170601e-02 0.0000000000000000e+00  -5.8604843365182751e-03 4.9343911022348648e-02 0.0000000000000000e+00  -5.8595485390788016e-03 5.0709404172135215e-02 0.0000000000000000e+00  -5.8567240484053238e-03 5.1432103647143360e-02 0.0000000000000000e+00  -5.8531375487269610e-03 5.2196671402922466e-02 0.0000000000000000e+00  -5.8445003587286699e-03 5.2994562293195713e-02 0.0000000000000000e+00  -5.8362533454730733e-03 5.3831689180899998e-02 0.0000000000000000e+00  -5.8303425875200470e-03 5.4716551660818090e-02 0.0000000000000000e+00  -5.8095157052786015e-03 5.5637945771097430e-02 0.0000000000000000e+00  -5.7881120426451780e-03 5.6601248553864218e-02 0.0000000000000000e+00  -5.7673058808087891e-03 5.7612231314397064e-02 0.0000000000000000e+00  -5.7382486074749510e-03 5.8664671243253808e-02 0.0000000000000000e+00  -5.7085692283365711e-03 5.9767107083742568e-02 0.0000000000000000e+00  -5.6690711890226035e-03 6.0912100585848110e-02 0.0000000000000000e+00  -5.6267225072436861e-03 6.2098362995575446e-02 0.0000000000000000e+00  -5.5663177270858406e-03 6.3322129645030020e-02 0.0000000000000000e+00  -5.5252344981682492e-03 6.4600786908408162e-02 0.0000000000000000e+00  -5.4484455321417019e-03 6.5911748687119048e-02 0.0000000000000000e+00  -5.3996347092810865e-03 6.7263417524518518e-02 0.0000000000000000e+00  -5.2891964816470776e-03 6.8648113311298095e-02 0.0000000000000000e+00  -5.2112401679951384e-03 7.0069526473147306e-02 0.0000000000000000e+00  -5.1035391245019251e-03 7.1511693513302360e-02 0.0000000000000000e+00  -4.9908236205102423e-03 7.2964149347039042e-02 0.0000000000000000e+00  -4.8546108364623773e-03 7.4424431685930201e-02 0.0000000000000000e+00  -4.7334981450244916e-03 7.5901837272895872e-02 0.0000000000000000e+00  -4.6066670061614507e-03 7.7388306656757472e-02 0.0000000000000000e+00  -4.4487477691988499e-03 7.8829454471786783e-02 0.0000000000000000e+00  -4.2789379355603107e-03 8.0304141585238617e-02 0.0000000000000000e+00  -4.1213589051690347e-03 8.1743620812856035e-02 0.0000000000000000e+00  -3.9664759985691585e-03 8.3127274052844619e-02 0.0000000000000000e+00  -3.7657806701012829e-03 8.4494299535059242e-02 0.0000000000000000e+00  -3.5992358888672390e-03 8.5797535033807687e-02 0.0000000000000000e+00  -3.4117541394894386e-03 8.7101516411766541e-02 0.0000000000000000e+00  -3.1750770932373511e-03 8.8280921801506970e-02 0.0000000000000000e+00  -2.9949770720195733e-03 8.9437511520969307e-02 0.0000000000000000e+00  -2.7910940624486899e-03 9.0492872133494939e-02 0.0000000000000000e+00  -2.6258830638290504e-03 9.1518736972039494e-02 0.0000000000000000e+00  -2.4311487206876447e-03 9.2461573585096546e-02 0.0000000000000000e+00  -2.2419282537542540e-03 9.3325540101483473e-02 0.0000000000000000e+00  -2.1113467087035655e-03 9.4148064008806584e-02 0.0000000000000000e+00  -1.9395665413525366e-03 9.4876021494986904e-02 0.0000000000000000e+00  -1.8380208795515337e-03 9.5566811132443544e-02 0.0000000000000000e+00  -1.7078266160430685e-03 9.6136843985544590e-02 0.0000000000000000e+00  -1.6447123369188123e-03 9.6690656521394289e-02 0.0000000000000000e+00  -1.5942354216979570e-03 9.7145713972395534e-02 0.0000000000000000e+00  -1.5729126247271262e-03 9.7497404747916599e-02 0.0000000000000000e+00  -1.5768588882715011e-03 9.7864824823028565e-02 0.0000000000000000e+00  -1.5269213612069956e-03 9.8046041446410825e-02 0.0000000000000000e+00  -1.4721175349265959e-03 9.8252997530724084e-02 0.0000000000000000e+00  -1.4022332310517744e-03 9.8460431240091212e-02 0.0000000000000000e+00  -1.3237763243280660e-03 9.8661399520623180e-02 0.0000000000000000e+00  -1.2280094863791114e-03 9.8849623294834571e-02 0.0000000000000000e+00  -1.1215730087880979e-03 9.9032184553373731e-02 0.0000000000000000e+00  -9.8336342079221304e-04 9.9202541162229513e-02 0.0000000000000000e+00  -8.3005479733245016e-04 9.9369095544472583e-02 0.0000000000000000e+00  -6.2409860785479494e-04 9.9550424186138367e-02 0.0000000000000000e+00  -3.9798871660018528e-04 9.9746336714996664e-02 0.0000000000000000e+00  0.0000000000000000e+00 1.0000000000000002e-01 0.0000000000000000e+00  0.0000000000000000e+00 1.0000000000000001e-01 0.0000000000000000e+00  0.0000000000000000e+00 9.9999999999999992e-02 0.0000000000000000e+00  0.0000000000000000e+00 9.9999999999999992e-02 0.0000000000000000e+00  0.0000000000000000e+00 1.0000000000000001e-01 0.0000000000000000e+00  0.0000000000000000e+00 9.9999999999999992e-02 0.0000000000000000e+00  0.0000000000000000e+00 9.9999999999999992e-02 0.0000000000000000e+00  0.0000000000000000e+00 1.0000000000000001e-01 0.0000000000000000e+00  0.0000000000000000e+00 1.0000000000000001e-01 0.0000000000000000e+00  0.0000000000000000e+00 9.9999999999999992e-02 0.0000000000000000e+00  0.0000000000000000e+00 9.9999999999999992e-02 0.0000000000000000e+00  -5.3463802521238039e-07 9.9809137451702210e-02 0.0000000000000000e+00  -1.9421563391486183e-07 9.9593078419401557e-02 0.0000000000000000e+00  -1.1528401117657740e-07 9.9284219117884445e-02 0.0000000000000000e+00  -2.5537454241358306e-07 9.8911322536309035e-02 0.0000000000000000e+00  -2.5875372895562081e-07 9.8500009514220513e-02 0.0000000000000000e+00  -1.4456532376473200e-07 9.8035398842414717e-02 0.0000000000000000e+00  -2.4938798210282596e-07 9.7546671465977453e-02 0.0000000000000000e+00  -3.3716506950818234e-07 9.7062084103916868e-02 0.0000000000000000e+00  -4.1082678963457398e-07 9.6546837350568696e-02 0.0000000000000000e+00  -1.8651272348030820e-07 9.6031649038296807e-02 0.0000000000000000e+00  7.8734168540190441e-08 9.5489196536331492e-02 0.0000000000000000e+00  -2.4055028987174578e-07 9.4964617219335370e-02 0.0000000000000000e+00  -2.3312474190834175e-07 9.4426181184498262e-02 0.0000000000000000e+00  -3.7082452549669402e-07 9.3860165202972384e-02 0.0000000000000000e+00  -4.1318915246026903e-07 9.3283845157578135e-02 0.0000000000000000e+00  -3.9443237558627502e-07 9.2626002908318267e-02 0.0000000000000000e+00  -3.9491734614283008e-07 9.1967441441753117e-02 0.0000000000000000e+00  -4.8201967828750937e-07 9.1281229125540694e-02 0.0000000000000000e+00  -4.2156331921688696e-07 9.0634257651460118e-02 0.0000000000000000e+00  -1.0410866985900212e-07 8.9864018423677097e-02 0.0000000000000000e+00  -1.7107380748745190e-07 8.9073240159792386e-02 0.0000000000000000e+00  -2.2190785063290626e-07 8.8243760761525389e-02 0.0000000000000000e+00  -3.0029789840797216e-07 8.7402041163807356e-02 0.0000000000000000e+00  -5.9774980998860292e-07 8.6522317655098269e-02 0.0000000000000000e+00  -4.4781248069622907e-08 8.5636055381821410e-02 0.0000000000000000e+00  8.1868338161630414e-08 8.4687175657045421e-02 0.0000000000000000e+00  -1.0723742658072464e-07 8.3735841810617953e-02 0.0000000000000000e+00  -2.3614491558016070e-07 8.2737098440058776e-02 0.0000000000000000e+00  -2.2817352822532871e-07 8.1690328790464242e-02 0.0000000000000000e+00  -4.8129417303924959e-07 8.0588615449178960e-02 0.0000000000000000e+00  -5.1242613380965168e-07 7.9522778048490519e-02 0.0000000000000000e+00  -4.8203238592855908e-07 7.8407757767892702e-02 0.0000000000000000e+00  -3.7441924789056256e-07 7.7295191052536211e-02 0.0000000000000000e+00  -3.1767264319631785e-07 7.6179169802892382e-02 0.0000000000000000e+00  -2.1474385322546389e-07 7.5071593192515440e-02 0.0000000000000000e+00  7.2507498608981387e-08 7.3927396857731420e-02 0.0000000000000000e+00  1.3227386676062597e-08 7.2799480984190840e-02 0.0000000000000000e+00  -1.7711771325245269e-07 7.1662994483726039e-02 0.0000000000000000e+00  -3.2326036261138429e-07 7.0553760950730765e-02 0.0000000000000000e+00  -1.0284976092578586e-07 6.9438455570779115e-02 0.0000000000000000e+00  -9.3101610054104597e-08 6.8320202289066226e-02 0.0000000000000000e+00  -5.4802245153699216e-08 6.7227161419417980e-02 0.0000000000000000e+00  -6.5292409899841350e-08 6.6154974626215002e-02 0.0000000000000000e+00  1.3315069266899368e-08 6.5090779291320330e-02 0.0000000000000000e+00  1.8788245810053571e-08 6.4044538243046303e-02 0.0000000000000000e+00  1.6358172974834286e-08 6.3024642968758413e-02 0.0000000000000000e+00  7.1945759311165071e-08 6.2036000788436109e-02 0.0000000000000000e+00  -3.1097528882245437e-08 6.1068689116407379e-02 0.0000000000000000e+00  -1.2348144003671480e-07 6.0116937000155128e-02 0.0000000000000000e+00  -1.0817869571026519e-07 5.9186996460399155e-02 0.0000000000000000e+00  -6.5323963959835814e-08 5.8288488088686585e-02 0.0000000000000000e+00  -9.7050141404302836e-08 5.7412973752638673e-02 0.0000000000000000e+00  -2.3635213785441348e-08 5.6554744502457857e-02 0.0000000000000000e+00  -8.1375986026855513e-08 5.5725422917531506e-02 0.0000000000000000e+00  -1.4412668496616641e-07 5.4923397033530039e-02 0.0000000000000000e+00  -3.9647127344724160e-08 5.4145309380971854e-02 0.0000000000000000e+00  -3.7772376362165450e-08 5.3395683284579852e-02 0.0000000000000000e+00  -7.4546067803612188e-08 5.2669692025867625e-02 0.0000000000000000e+00  -9.2831760482267582e-09 5.1968989888504395e-02 0.0000000000000000e+00  -2.3414671417382846e-08 5.1295773410416537e-02 0.0000000000000000e+00  -4.9099974262370224e-08 5.0645691732305563e-02 0.0000000000000000e+00  -3.4489374568294765e-08 4.9394549274185892e-02 0.0000000000000000e+00  -5.6902190249503319e-08 4.8744625326056404e-02 0.0000000000000000e+00  -2.8614955661818616e-08 4.8071202338389962e-02 0.0000000000000000e+00  -3.4085708003518659e-08 4.7374839980451305e-02 0.0000000000000000e+00  -7.3650248701890332e-08 4.6651844083582292e-02 0.0000000000000000e+00  -6.1068097919592353e-08 4.5901090254265649e-02 0.0000000000000000e+00  -3.3189377413749798e-08 4.5125642357471317e-02 0.0000000000000000e+00  -1.0945392501911559e-07 4.4325625892185437e-02 0.0000000000000000e+00  -4.9141595864453541e-08 4.3499371981012142e-02 0.0000000000000000e+00  -4.9909324948360856e-08 4.2647506926416397e-02 0.0000000000000000e+00  -3.9683855452815413e-08 4.1765275634963316e-02 0.0000000000000000e+00  -5.3758624327482900e-08 4.0860504128131206e-02 0.0000000000000000e+00  -1.7359662163615699e-07 3.9928563915088457e-02 0.0000000000000000e+00  -6.5970979955792513e-08 3.8979364111770762e-02 0.0000000000000000e+00  -5.1320342842205259e-08 3.8009227382016841e-02 0.0000000000000000e+00  -4.3522640363616279e-08 3.7012400528668658e-02 0.0000000000000000e+00  -2.5920277053077761e-07 3.5988400317002955e-02 0.0000000000000000e+00  -2.8124152995506484e-07 3.4940741855192796e-02 0.0000000000000000e+00  -1.1054325057139861e-07 3.3867638677314495e-02 0.0000000000000000e+00  -1.8257079468658235e-07 3.2771722149034919e-02 0.0000000000000000e+00  -1.8525298455950109e-07 3.1672567025017147e-02 0.0000000000000000e+00  -2.3366241618815253e-07 3.0567119581483781e-02 0.0000000000000000e+00  -3.6066267008404923e-07 2.9438540489545778e-02 0.0000000000000000e+00  -3.0042655051204922e-09 2.8307069872624234e-02 0.0000000000000000e+00  -1.7417949766527438e-07 2.7188264882025921e-02 0.0000000000000000e+00  -3.5974078742255706e-07 2.6076436416618685e-02 0.0000000000000000e+00  -2.5070407090253699e-07 2.4946554108821732e-02 0.0000000000000000e+00  -4.0797946660672631e-07 2.3812714486048589e-02 0.0000000000000000e+00  -3.0443901778961478e-07 2.2692308758327475e-02 0.0000000000000000e+00  -3.3248781384836707e-07 2.1573774289809503e-02 0.0000000000000000e+00  -5.5952918245508230e-07 2.0468979723845804e-02 0.0000000000000000e+00  -5.3740823866543285e-07 1.9387024558390229e-02 0.0000000000000000e+00  -5.4487877611362126e-07 1.8323717568661326e-02 0.0000000000000000e+00  -5.3143562270103999e-07 1.7271375990888897e-02 0.0000000000000000e+00  -1.4707652585609555e-07 1.6274532031035831e-02 0.0000000000000000e+00  -3.5758992449868467e-07 1.5305494433438553e-02 0.0000000000000000e+00  -3.7794220650923834e-07 1.4361544772888845e-02 0.0000000000000000e+00  -6.4534159492276256e-07 1.3446615098158407e-02 0.0000000000000000e+00  -2.3091591029677673e-07 1.2592577279852111e-02 0.0000000000000000e+00  -5.5973533662459657e-07 1.1708530143907143e-02 0.0000000000000000e+00  -6.4158439858101746e-07 1.0892230346347145e-02 0.0000000000000000e+00  -7.6636406726717110e-07 1.0125344400495029e-02 0.0000000000000000e+00  -5.4658009816042783e-07 9.4151780733641739e-03 0.0000000000000000e+00  -5.4125576184696364e-07 8.7066685205718294e-03 0.0000000000000000e+00  -6.5323397985239886e-07 8.0358878394716816e-03 0.0000000000000000e+00  -6.8067617170099341e-07 7.3749951549916424e-03 0.0000000000000000e+00  -9.3762319733495198e-07 6.7599116001219412e-03 0.0000000000000000e+00  -4.3672925017029518e-07 6.1844882226919093e-03 0.0000000000000000e+00  -7.1500558659849016e-07 5.5958996571867118e-03 0.0000000000000000e+00  -6.5819030703806873e-07 5.0357298104859250e-03 0.0000000000000000e+00  -4.8219470996470455e-07 4.4910953455716413e-03 0.0000000000000000e+00  -4.3123200652283437e-07 3.9469614115088250e-03 0.0000000000000000e+00  -5.2804740291537873e-07 3.4266133853523627e-03 0.0000000000000000e+00  -1.7250796879163034e-07 2.9182955653080729e-03 0.0000000000000000e+00  -1.8492102186678368e-07 2.4184153112970534e-03 0.0000000000000000e+00  -1.2656872380729731e-07 1.9569147864695823e-03 0.0000000000000000e+00  4.6561699308749330e-08 1.5119396082720878e-03 0.0000000000000000e+00  -1.4017441685317409e-07 1.074898652759335