<?xml version="1.0"?>
<VTKFile type="UnstructuredGrid"  version="0.1"  >
<UnstructuredGrid>
<Piece  NumberOfPoints="2064" NumberOfCells="3842">
<Points>
<DataArray  type="Float64"  NumberOfComponents="3"  format="ascii">0 0 0  0.4 0 0  0.4 0.4 0  0.4 2 0  0.4 2.4 0  0 2.4 0  0 1.2 0  0.09442719099991592 1.2 0  0.04999999999991419 0 0  0.09999999999976655 0 0  0.1499999999996174 0 0  0.1999999999994737 0 0  0.2499999999996012 0 0  0.2999999999997341 0 0  0.3499999999998725 0 0  0.4 0.04490054755780609 0  0.4 0.08728102288719632 0  0.4 0.127282861984852 0  0.4 0.1650395793634534 0  0.4 0.2006771614573222 0  0.4 0.2343145678202487 0  0.4 0.2660640514334936 0  0.4 0.2960315713318087 0  0.4 0.3243171534442337 0  0.4 0.3510151778607238 0  0.4 0.3762147593669765 0  0.3838325644673298 0.4184519041479398 0  0.3683953300346307 0.4368060584116434 0  0.3536615979029293 0.4550435590956501 0  0.3396051856135377 0.473147237722841 0  0.3262004928426353 0.4911015157475286 0  0.3134225038405827 0.5088923356151951 0  0.3012468350136632 0.5265070301161103 0  0.289649727202514 0.5439342653019726 0  0.2786080797806054 0.5611639229961951 0  0.2680994518128559 0.5781870282993612 0  0.2581020577925817 0.594995687384956 0  0.2485947966955289 0.6115829684453767 0  0.2395572159226798 0.6279428912420084 0  0.2309695402541045 0.6440703056409012 0  0.2228126456010115 0.6599608661499604 0  0.2150680649468926 0.6756109488118054 0  0.2077179652425745 0.6910176244172292 0  0.2007451581747424 0.7061785635724216 0  0.1941330685533778 0.7210920296031775 0  0.187865731362808 0.7357568136786556 0  0.1819277784059361 0.7501721918577611 0  0.1763044223842591 0.7643378897548474 0  0.1709814462523012 0.7782540354567948 0  0.1659451816940687 0.7919211416000106 0  0.1611825004958043 0.8053400559415214 0  0.1566807969567119 0.8185119361740301 0  0.1524279714485859 0.8314382242497815 0  0.1484124145310832 0.8441206213966692 0  0.1446229953612439 0.8565610509978405 0  0.1410490406726472 0.8687616532651306 0  0.1376803237536894 0.8807247502294573 0  0.1345070480820316 0.8924528295474728 0  0.1315198313379682 0.9039485300761398 0  0.1287096917422226 0.9152146212945773 0  0.1260680347252623 0.926253982770195 0  0.1235866354816217 0.9370696032148178 0  0.1212576294634056 0.9476645488952582 0  0.1190734945680743 0.9580419699947785 0  0.1170270419973136 0.9682050709600152 0  0.1151114007074783 0.9781571124265547 0  0.1133200055160031 0.9879013993486245 0  0.1116465857084123 0.9974412684028026 0  0.1100851540973415 1.00678007446057 0  0.1086299919107812 1.015921205370188 0  0.1072756432488249 1.024868042116264 0  0.1060168996208661 1.033623982063629 0  0.1048487921770971 1.042192417627859 0  0.1037665809790429 1.050576736266659 0  0.1027657469680525 1.058780303045589 0  0.1018419796222241 1.066806480626017 0  0.1009911707048814 1.074658604354542 0  0.100209404358178 1.082339989509986 0  0.09949294970732381 1.089853919786047 0  0.09883825188846673 1.097203654372538 0  0.09824192517424879 1.104392417551853 0  0.09770074530898887 1.111423399342931 0  0.09721164246300873 1.118299753112525 0  0.09677169442723854 1.125024593837347 0  0.09637812005447888 1.131600997033756 0  0.09602827298084238 1.138031997847958 0  0.09571963585538867 1.144320585137491 0  0.09544981410873254 1.150469709236281 0  0.09521653091090854 1.156482271096842 0  0.09501762139786152 1.162361132495572 0  0.09485102799585166 1.168109105493136 0  0.09471479534921778 1.17372895658593 0  0.09460706563777421 1.179223407979745 0  0.0945260742084173 1.184595133154879 0  0.09447014520952024 1.18984676120699 0  0.09443768756826221 1.194980871205597 0  0.09443806302859437 1.205108106364119 0  0.0944729919958105 1.210484287883107 0  0.09453577090937082 1.216142490300296 0  0.09463066380701091 1.222097360381834 0  0.0947624594889982 1.228364272753548 0  0.09493653111586542 1.234959359990207 0  0.09515890239686042 1.241899545953364 0  0.09543632088446197 1.249202574930454 0  0.09577633904503413 1.256887038135555 0  0.09618740432963668 1.264972406761361 0  0.0966789587196919 1.273479058714701 0  0.09726154875905446 1.282428302408976 0  0.09794694731159104 1.291842400140276 0  0.09874828856820561 1.301744593368398 0  0.09968021618774325 1.312159110985963 0  0.1007590472181439 1.323111179510956 0  0.1020029535614844 1.334627032832841 0  0.1034321610687219 1.346733904327509 0  0.1050691685317944 1.359460008750532 0  0.1069389890698906 1.372834517030006 0  0.1090694154101453 1.386887516567777 0  0.1114913103057413 1.401649949581689 0  0.1142389217184392 1.41715351493907 0  0.1173502356392664 1.433430591737466 0  0.1208673508568801 1.450514074661389 0  0.1248368950934375 1.468437217466946 0  0.1293104684030106 1.487233394167611 0  0.1343451326727159 1.506935853147407 0  0.1400039326793197 1.527577381161243 0  0.1463564603139997 1.549189915865717 0  0.1534794513310238 1.571804055040348 0  0.1614574289723265 1.59544850275497 0  0.1703833808249424 1.620149393439201 0  0.1803594611147896 1.645929471137086 0  0.191497735209273 1.672807165289779 0  0.2039209237677404 1.700795448389207 0  0.2177631713050063 1.729900546040858 0  0.2331708044748657 1.760120417463775 0  0.2503030499535754 1.791442962663554 0  0.2693327082756052 1.823843972070083 0  0.2904467283334415 1.857284740872639 0  0.313846664572799 1.891709354564414 0  0.3397489262043362 1.927041546768065 0  0.3683847768932553 1.963181136608806 0  0.4 2.044900547557741 0  0.4 2.087281022887292 0  0.4 2.127282861984825 0  0.4 2.165039579363555 0  0.4 2.200677161457211 0  0.4 2.234314567819979 0  0.4 2.266064051433231 0  0.4 2.29603157133185 0  0.4 2.324317153444571 0  0.4 2.351015177861111 0  0.4 2.376214759367253 0  0.3762147593670869 2.4 0  0.3510151778609575 2.4 0  0.3243171534446052 2.4 0  0.296031571332334 2.4 0  0.2660640514341884 2.4 0  0.2343145678211326 2.4 0  0.200677161458414 2.4 0  0.165039579364376 2.4 0  0.1272828619855727 2.4 0  0.08728102288768802 2.4 0  0.04490054755804584 2.4 0  0 2.351390275785884 0  0 2.304552731578128 0  0 2.259422753650416 0  0 2.215938095776203 0  0 2.174038769221176 0  0 2.133666973505663 0  0 2.094767030761372 0  0 2.057285274882487 0  0 2.021169996669198 0  0 1.98637139041763 0  0 1.952841448848309 0  0 1.920533905270079 0  0 1.889404216687487 0  0 1.859409431581987 0  0 1.830508174253126 0  0 1.802660578364919 0  0 1.775828229457246 0  0 1.749974120892053 0  0 1.725062579668715 0  0 1.701059245975984 0  0 1.677931008439425 0  0 1.655645964869692 0  0 1.634173369332893 0  0 1.613483613383766 0  0 1.593548147670557 0  0 1.574339474861461 0  0 1.555831095205801 0  0 1.537997486363343 0  0 1.520814036475161 0  0 1.504257050792596 0  0 1.488303689738582 0  0 1.47293194468338 0  0 1.458120611126952 0  0 1.443849259716804 0  0 1.430098202826807 0  0 1.416848471990003 0  0 1.404081790973001 0  0 1.391780548456538 0  0 1.379927775838647 0  0 1.36850712315392 0  0 1.357502837034801 0  0 1.346899736933002 0  0 1.336683196700207 0  0 1.326839124824946 0  0 1.317353941220879 0  0 1.308214562093801 0  0 1.299408378803474 0  0 1.290923246392895 0  0 1.282747456144235 0  0 1.274869735093633 0  0 1.267279214098316 0  0 1.259965423665274 0  0 1.252918273094548 0  0 1.246128044148505 0  0 1.239585367106648 0  0 1.23328121948346 0  0 1.227206903233693 0  0 1.221354040630691 0  0 1.215714557462727 0  0 1.210280675039678 0  0 1.205044896789031 0  0 1.194955103210978 0  0 1.189719324960339 0  0 1.1842854425373 0  0 1.178645959369345 0  0 1.172793096766355 0  0 1.166718780516599 0  0 1.160414632893424 0  0 1.15387195585158 0  0 1.147081726905552 0  0 1.14003457633484 0  0 1.132720785901815 0  0 1.125130264906515 0  0 1.117252543855931 0  0 1.109076753607291 0  0 1.100591621196733 0  0 1.091785437906426 0  0 1.082646058779372 0  0 1.07316087517533 0  0 1.063316803300096 0  0 1.053100263067329 0  0 1.042497162965573 0  0 1.031492876846507 0  0 1.020072224161836 0  0 1.008219451544004 0  0 0.9959182090276039 0  0 0.9831515280106697 0  0 0.969901797173938 0  0 0.9561507402840164 0  0 0.9418793888739494 0  0 0.9270680553176084 0  0 0.9116963102624975 0  0 0.8957429492085807 0  0 0.8791859635261186 0  0 0.8620025136380454 0  0 0.8441689047957012 0  0 0.8256605251401634 0  0 0.8064518523311963 0  0 0.7865163866181252 0  0 0.7658266306691419 0  0 0.7443540351324957 0  0 0.7220689915629243 0  0 0.6989407540265372 0  0 0.6749374203339855 0  0 0.6500258791108374 0  0 0.6241717705458441 0  0 0.5973394216383467 0  0 0.5694918257499931 0  0 0.5405905684209703 0  0 0.5105957833153173 0  0 0.479466094732611 0  0 0.4471585511542315 0  0 0.4136286095847471 0  0 0.3788300033330131 0  0 0.3427147251195944 0  0 0.305232969240564 0  0 0.2663330264961172 0  0 0.225961230780293 0  0 0.1840619042249165 0  0 0.1405772463503563 0  0 0.09544726842240769 0  0 0.04860972421439458 0  0.04813671057256446 1.197473279821492 0  0.04895543136439754 1.151270788221793 0  0.04738437551928104 1.245081661106426 0  0.2256341401927007 0.335035210600554 0  0.0512759040765693 1.103565270882211 0  0.1570277503437201 0.4710961631110478 0  0.04891680688198799 1.294160758757891 0  0.05568190394618851 1.057427469737321 0  0.05765554841188782 1.003616718285677 0  0.1206184164719817 0.6010910013922988 0  0.2174958646397733 2.217495864639892 0  0.06616240375728431 1.175917411653735 0  0.09608236746672907 0.7063802628109249 0  0.02794287230014219 1.219415480129978 0  0.06431259901636358 1.220489754068911 0  0.02794535307324082 1.174496345043953 0  0.06296426494091534 0.9414057385563683 0  0.08050882020181049 0.7988485989880517 0  0.0719103235923903 0.86993553852932 0  0.1823275170984414 2.037281568815077 0  0.04971518892196945 1.344501211918876 0  0.2490207822396599 0.1848651832981602 0  0.052494558421043 1.396392612075255 0  0.1344185702276811 1.870543477222118 0  0.07221302203322316 1.197443967850841 0  0.06629456243276534 1.127713702579542 0  0.03033713389389925 1.127495065716931 0  0.02186182423217333 1.197477551605483 0  0.06191152475830487 1.458801491557402 0  0.1109984100569154 1.762901175174654 0 
[...]
<PointData  Vectors="f_253"> 
<DataArray  type="Float64"  Name="f_253"  NumberOfComponents="3" format="ascii">0.0000000000000000e+00 0.0000000000000000e+00 0.0000000000000000e+00  0.0000000000000000e+00 0.0000000000000000e+00 0.0000000000000000e+00  -1.5667606182850654e-03 2.2800547365573625e-03 0.0000000000000000e+00  -1.5792079507562231e-03 9.7707703449838770e-02 0.0000000000000000e+00  0.0000000000000000e+00 1.0000000000000001e-01 0.0000000000000000e+00  0.0000000000000000e+00 1.0000000000000001e-01 0.0000000000000000e+00  0.0000000000000000e+00 5.0019119076121873e-02 0.0000000000000000e+00  -5.8610526379473992e-03 5.0022277543017107e-02 0.0000000000000000e+00  0.0000000000000000e+00 0.0000000000000000e+00 0.0000000000000000e+00  0.0000000000000000e+00 0.0000000000000000e+00 0.0000000000000000e+00  0.0000000000000000e+00 0.0000000000000000e+00 0.0000000000000000e+00  0.0000000000000000e+00 0.0000000000000000e+00 0.0000000000000000e+00  0.0000000000000000e+00 0.0000000000000000e+00 0.0000000000000000e+00  0.0000000000000000e+00 0.0000000000000000e+00 0.0000000000000000e+00  0.0000000000000000e+00 0.0000000000000000e+00 0.0000000000000000e+00  -6.0230455076222013e-04 3.9728604554515061e-04 0.0000000000000000e+00  -8.8705974724332781e-04 6.8882201780804937e-04 0.0000000000000000e+00  -1.0851177109412621e-03 9.2346564203166497e-04 0.0000000000000000e+00  -1.2241288092926833e-03 1.1333916047036783e-03 0.0000000000000000e+00  -1.3245878452297593e-03 1.3407859488038325e-03 0.0000000000000000e+00  -1.3985848918806588e-03 1.5327617900546746e-03 0.0000000000000000e+00  -1.4567569196392044e-03 1.7082043776958642e-03 0.0000000000000000e+00  -1.5082342333486889e-03 1.8654610722833780e-03 0.0000000000000000e+00  -1.5425284568422219e-03 2.0062677459451333e-03 0.0000000000000000e+00  -1.5735977402142373e-03 2.1207397753460647e-03 0.0000000000000000e+00  -1.5805240880144291e-03 2.2171025479520014e-03 0.0000000000000000e+00  -1.5716718130137457e-03 2.3637747356186362e-03 0.0000000000000000e+00  -1.5806897979306947e-03 2.4912359356158739e-03 0.0000000000000000e+00  -1.5829315310589885e-03 2.6578794407728758e-03 0.0000000000000000e+00  -1.5976986882792377e-03 2.8523801696241900e-03 0.0000000000000000e+00  -1.6168630225625632e-03 3.0656134722380959e-03 0.0000000000000000e+00  -1.6431270541093813e-03 3.3047825431442939e-03 0.0000000000000000e+00  -1.6747870854021286e-03 3.5711407780647259e-03 0.0000000000000000e+00  -1.7238047372066675e-03 3.8519683581808369e-03 0.0000000000000000e+00  -1.7734353380894907e-03 4.1573363987419355e-03 0.0000000000000000e+00  -1.8304453103487905e-03 4.4746960961314711e-03 0.0000000000000000e+00  -1.8905067694603827e-03 4.8146046134214006e-03 0.0000000000000000e+00  -1.9613546822794710e-03 5.1760603217727436e-03 0.0000000000000000e+00  -2.0281159998168422e-03 5.5654582112764379e-03 0.0000000000000000e+00  -2.1121254276796819e-03 5.9575281202626229e-03 0.0000000000000000e+00  -2.1976688333227037e-03 6.3871761551274366e-03 0.0000000000000000e+00  -2.2922326936632292e-03 6.8230501023660729e-03 0.0000000000000000e+00  -2.3815719398079071e-03 7.2863280072798155e-03 0.0000000000000000e+00  -2.4887579875775005e-03 7.7682796992645147e-03 0.0000000000000000e+00  -2.5674082563599803e-03 8.2808901051423384e-03 0.0000000000000000e+00  -2.6816836988081791e-03 8.8035609528631376e-03 0.0000000000000000e+00  -2.7768033868170966e-03 9.3571547785039448e-03 0.0000000000000000e+00  -2.8988299875237285e-03 9.9189726231714518e-03 0.0000000000000000e+00  -2.9899493890786517e-03 1.0516023082053332e-02 0.0000000000000000e+00  -3.0951815178808400e-03 1.1121948166624537e-02 0.0000000000000000e+00  -3.2060204542555676e-03 1.1764061351773185e-02 0.0000000000000000e+00  -3.2949933695703123e-03 1.2433316923020736e-02 0.0000000000000000e+00  -3.4156901442316803e-03 1.3106228981189412e-02 0.0000000000000000e+00  -3.5377723852929193e-03 1.3814110734183248e-02 0.0000000000000000e+00  -3.6295071461638854e-03 1.4541617244232781e-02 0.0000000000000000e+00  -3.7390841102148565e-03 1.5279065325063760e-02 0.0000000000000000e+00  -3.8315129175426066e-03 1.6053705739979777e-02 0.0000000000000000e+00  -3.9606145667667961e-03 1.6827414766531348e-02 0.0000000000000000e+00  -4.0651100306573051e-03 1.7627905597188912e-02 0.0000000000000000e+00  -4.1717589390170033e-03 1.8457857944998889e-02 0.0000000000000000e+00  -4.2478153865301641e-03 1.9296838759380250e-02 0.0000000000000000e+00  -4.3407896767782865e-03 2.0147233267476739e-02 0.0000000000000000e+00  -4.4202112372113099e-03 2.1024002747428546e-02 0.0000000000000000e+00  -4.5346331009439239e-03 2.1896483463327742e-02 0.0000000000000000e+00  -4.6276946562445838e-03 2.2784041966802289e-02 0.0000000000000000e+00  -4.7165354912697662e-03 2.3693034894176207e-02 0.0000000000000000e+00  -4.7849114394704038e-03 2.4610949613454492e-02 0.0000000000000000e+00  -4.8563613164048685e-03 2.5522580037271380e-02 0.0000000000000000e+00  -4.9491008769545573e-03 2.6435147532256533e-02 0.0000000000000000e+00  -5.0151601456110096e-03 2.7368561818952447e-02 0.0000000000000000e+00  -5.0926341555517203e-03 2.8288093884429433e-02 0.0000000000000000e+00  -5.1674146188831673e-03 2.9220906448140144e-02 0.0000000000000000e+00  -5.2265053497159873e-03 3.0162868135775799e-02 0.0000000000000000e+00  -5.2808934094050498e-03 3.1084393489436514e-02 0.0000000000000000e+00  -5.3438520987499167e-03 3.2012038871832016e-02 0.0000000000000000e+00  -5.3916835130049913e-03 3.2943284298783695e-02 0.0000000000000000e+00  -5.4462458227203950e-03 3.3859000169582661e-02 0.0000000000000000e+00  -5.4862207847639058e-03 3.4777643149731606e-02 0.0000000000000000e+00  -5.5239428029704857e-03 3.5691832521130180e-02 0.0000000000000000e+00  -5.5703439996727501e-03 3.6585068057735662e-02 0.0000000000000000e+00  -5.6041880772291566e-03 3.7483155077744489e-02 0.0000000000000000e+00  -5.6435654155429756e-03 3.8359582070470362e-02 0.0000000000000000e+00  -5.6761825590245594e-03 3.9227442969377836e-02 0.0000000000000000e+00  -5.7074551208174413e-03 4.0080494813555474e-02 0.0000000000000000e+00  -5.7279566902608886e-03 4.0929120957095715e-02 0.0000000000000000e+00  -5.7563465715652299e-03 4.1764979058035133e-02 0.0000000000000000e+00  -5.7739644687606739e-03 4.2591103983255912e-02 0.0000000000000000e+00  -5.7892654106539831e-03 4.3398656294768384e-02 0.0000000000000000e+00  -5.8081018466021031e-03 4.4190750720687559e-02 0.0000000000000000e+00  -5.8224601720887432e-03 4.4968344674224357e-02 0.0000000000000000e+00  -5.8306298474611259e-03 4.5739015246611003e-02 0.0000000000000000e+00  -5.8394452801731386e-03 4.6487706778902099e-02 0.0000000000000000e+00  -5.8479997991775397e-03 4.7223590611526298e-02 0.0000000000000000e+00  -5.8527726994940191e-03 4.7948708904022024e-02 0.0000000000000000e+00  -5.8576306798385370e-03 4.8653715578067663e-02 0.0000000000000000e+00  -5.8604974600523158e-03 4.9343874958509976e-02 0.0000000000000000e+00  -5.8595636255930651e-03 5.0709369137886116e-02 0.0000000000000000e+00  -5.8567399001157941e-03 5.1432068935151148e-02 0.0000000000000000e+00  -5.8531543046625974e-03 5.2196636899633719e-02 0.0000000000000000e+00  -5.8445176923659472e-03 5.2994527903797974e-02 0.0000000000000000e+00  -5.8362710025884274e-03 5.3831654804781928e-02 0.0000000000000000e+00  -5.8303604897515498e-03 5.4716517144034506e-02 0.0000000000000000e+00  -5.8095334522655301e-03 5.5637911023345143e-02 0.0000000000000000e+00  -5.7881287915917705e-03 5.6601213432961893e-02 0.0000000000000000e+00  -5.7673213839527825e-03 5.7612195883257243e-02 0.0000000000000000e+00  -5.7382620359771137e-03 5.8664636021923643e-02 0.0000000000000000e+00  -5.7085807536805568e-03 5.9767072304604825e-02 0.0000000000000000e+00  -5.6690807081433365e-03 6.0912066731176662e-02 0.0000000000000000e+00  -5.6267309265602633e-03 6.2098330745042889e-02 0.0000000000000000e+00  -5.5663251340574531e-03 6.3322098371313265e-02 0.0000000000000000e+00  -5.5252429012403173e-03 6.4600757000477058e-02 0.0000000000000000e+00  -5.4484571360551718e-03 6.5911719708216673e-02 0.0000000000000000e+00  -5.3996529500531234e-03 6.7263386704110195e-02 0.0000000000000000e+00  -5.2892122297977275e-03 6.8648075941088627e-02 0.0000000000000000e+00  -5.2112512520357335e-03 7.0069482543905104e-02 0.0000000000000000e+00  -5.1035430624703183e-03 7.1511648293272445e-02 0.0000000000000000e+00  -4.9908173374104570e-03 7.2964111561812262e-02 0.0000000000000000e+00  -4.8546079186620548e-03 7.4424402075621454e-02 0.0000000000000000e+00  -4.7334857606745060e-03 7.5901819305316906e-02 0.0000000000000000e+00  -4.6066627188244766e-03 7.7388297648208662e-02 0.0000000000000000e+00  -4.4487740019545008e-03 7.8829451606262479e-02 0.0000000000000000e+00  -4.2789938716687763e-03 8.0304144145803336e-02 0.0000000000000000e+00  -4.1214165168411395e-03 8.1743613214261532e-02 0.0000000000000000e+00  -3.9665284895505611e-03 8.3127265210485413e-02 0.0000000000000000e+00  -3.7658316213955590e-03 8.4494291392087861e-02 0.0000000000000000e+00  -3.5992780795977490e-03 8.5797530228630667e-02 0.0000000000000000e+00  -3.4117985070441629e-03 8.7101517246040594e-02 0.0000000000000000e+00  -3.1751152739874539e-03 8.8280923074753617e-02 0.0000000000000000e+00  -2.9950057822290986e-03 8.9437511537492673e-02 0.0000000000000000e+00  -2.7911199898249927e-03 9.0492875114677865e-02 0.0000000000000000e+00  -2.6259030551927108e-03 9.1518738340767125e-02 0.0000000000000000e+00  -2.4311623576950352e-03 9.2461580059078688e-02 0.0000000000000000e+00  -2.2419489803116978e-03 9.3325552902698880e-02 0.0000000000000000e+00  -2.1113704987027093e-03 9.4148073623380638e-02 0.0000000000000000e+00  -1.9395894786324820e-03 9.4876028822835343e-02 0.0000000000000000e+00  -1.8380400008781146e-03 9.5566816105669777e-02 0.0000000000000000e+00  -1.7078436348829645e-03 9.6136848805593908e-02 0.0000000000000000e+00  -1.6447276235829718e-03 9.6690661759583241e-02 0.0000000000000000e+00  -1.5942505241705702e-03 9.7145720315805026e-02 0.0000000000000000e+00  -1.5729281306262537e-03 9.7497411114992300e-02 0.0000000000000000e+00  -1.5768753162852796e-03 9.7864830430279035e-02 0.0000000000000000e+00  -1.5269374366601641e-03 9.8046045818348720e-02 0.0000000000000000e+00  -1.4721320845259580e-03 9.8253000769175203e-02 0.0000000000000000e+00  -1.4022456202003961e-03 9.8460433818085336e-02 0.0000000000000000e+00  -1.3237869720918438e-03 9.8661401773080332e-02 0.0000000000000000e+00  -1.2280187773509609e-03 9.8849625401764521e-02 0.0000000000000000e+00  -1.1215812508581012e-03 9.9032186210528256e-02 0.0000000000000000e+00  -9.8337034043153183e-04 9.9202542068242916e-02 0.0000000000000000e+00  -8.3006016927593168e-04 9.9369095663046650e-02 0.0000000000000000e+00  -6.2410218845031229e-04 9.9550423875205060e-02 0.0000000000000000e+00  -3.9799049745529031e-04 9.9746336295258836e-02 0.0000000000000000e+00  0.0000000000000000e+00 1.0000000000000002e-01 0.0000000000000000e+00  0.0000000000000000e+00 1.0000000000000001e-01 0.0000000000000000e+00  0.0000000000000000e+00 9.9999999999999992e-02 0.0000000000000000e+00  0.0000000000000000e+00 9.9999999999999992e-02 0.0000000000000000e+00  0.0000000000000000e+00 1.0000000000000001e-01 0.0000000000000000e+00  0.0000000000000000e+00 9.9999999999999992e-02 0.0000000000000000e+00  0.0000000000000000e+00 9.9999999999999992e-02 0.0000000000000000e+00  0.0000000000000000e+00 1.0000000000000001e-01 0.0000000000000000e+00  0.0000000000000000e+00 1.0000000000000001e-01 0.0000000000000000e+00  0.0000000000000000e+00 1.0000000000000001e-01 0.0000000000000000e+00  0.0000000000000000e+00 9.9999999999999992e-02 0.0000000000000000e+00  0.0000000000000000e+00 9.9809497532810779e-02 0.0000000000000000e+00  0.0000000000000000e+00 9.9593008730308949e-02 0.0000000000000000e+00  0.0000000000000000e+00 9.9283420980077294e-02 0.0000000000000000e+00  0.0000000000000000e+00 9.8910783709725045e-02 0.0000000000000000e+00  0.0000000000000000e+00 9.8499980261679054e-02 0.0000000000000000e+00  0.0000000000000000e+00 9.8035689232384121e-02 0.0000000000000000e+00  0.0000000000000000e+00 9.7547001436918843e-02 0.0000000000000000e+00  0.0000000000000000e+00 9.7061118345131481e-02 0.0000000000000000e+00  0.0000000000000000e+00 9.6547205762610708e-02 0.0000000000000000e+00  0.0000000000000000e+00 9.6032160457076646e-02 0.0000000000000000e+00  0.0000000000000000e+00 9.5488274750615568e-02 0.0000000000000000e+00  0.0000000000000000e+00 9.4962985497657859e-02 0.0000000000000000e+00  0.0000000000000000e+00 9.4424918865105095e-02 0.0000000000000000e+00  0.0000000000000000e+00 9.3859352825726217e-02 0.0000000000000000e+00  0.0000000000000000e+00 9.3284650408851769e-02 0.0000000000000000e+00  0.0000000000000000e+00 9.2628013594044364e-02 0.0000000000000000e+00  0.0000000000000000e+00 9.1969941579468931e-02 0.0000000000000000e+00  0.0000000000000000e+00 9.1280887043407088e-02 0.0000000000000000e+00  0.0000000000000000e+00 9.0635476441502077e-02 0.0000000000000000e+00  0.0000000000000000e+00 8.9865444571545203e-02 0.0000000000000000e+00  0.0000000000000000e+00 8.9074406011259988e-02 0.0000000000000000e+00  0.0000000000000000e+00 8.8242551978241074e-02 0.0000000000000000e+00  0.0000000000000000e+00 8.7401847460048768e-02 0.0000000000000000e+00  0.0000000000000000e+00 8.6523780307916992e-02 0.0000000000000000e+00  0.0000000000000000e+00 8.5638374945840576e-02 0.0000000000000000e+00  0.0000000000000000e+00 8.4685993786887959e-02 0.0000000000000000e+00  0.0000000000000000e+00 8.3734397353933954e-02 0.0000000000000000e+00  0.0000000000000000e+00 8.2735702948817783e-02 0.0000000000000000e+00  0.0000000000000000e+00 8.1689422894748426e-02 0.0000000000000000e+00  0.0000000000000000e+00 8.0588179356352985e-02 0.0000000000000000e+00  0.0000000000000000e+00 7.9524539947119208e-02 0.0000000000000000e+00  0.0000000000000000e+00 7.8409269946453752e-02 0.0000000000000000e+00  0.0000000000000000e+00 7.7298679684006388e-02 0.0000000000000000e+00  0.0000000000000000e+00 7.6182315833910177e-02 0.0000000000000000e+00  0.0000000000000000e+00 7.5074440550886870e-02 0.0000000000000000e+00  0.0000000000000000e+00 7.3930034436783129e-02 0.0000000000000000e+00  0.0000000000000000e+00 7.2801043265503476e-02 0.0000000000000000e+00  0.0000000000000000e+00 7.1663780142707800e-02 0.0000000000000000e+00  0.0000000000000000e+00 7.0554994952035557e-02 0.0000000000000000e+00  0.0000000000000000e+00 6.9440242418971149e-02 0.0000000000000000e+00  0.0000000000000000e+00 6.8321531023616655e-02 0.0000000000000000e+00  0.0000000000000000e+00 6.7228732917827355e-02 0.0000000000000000e+00  0.0000000000000000e+00 6.6156286982341023e-02 0.0000000000000000e+00  0.0000000000000000e+00 6.5092193193676248e-02 0.0000000000000000e+00  0.0000000000000000e+00 6.4045229272359130e-02 0.0000000000000000e+00  0.0000000000000000e+00 6.3025205659221928e-02 0.0000000000000000e+00  0.0000000000000000e+00 6.2035702299568687e-02 0.0000000000000000e+00  0.0000000000000000e+00 6.1067981315822861e-02 0.0000000000000000e+00  0.0000000000000000e+00 6.0116425872481470e-02 0.0000000000000000e+00  0.0000000000000000e+00 5.9186928388628567e-02 0.0000000000000000e+00  0.0000000000000000e+00 5.8288581975484671e-02 0.0000000000000000e+00  0.0000000000000000e+00 5.7413265299419848e-02 0.0000000000000000e+00  0.0000000000000000e+00 5.6555050779907662e-02 0.0000000000000000e+00  0.0000000000000000e+00 5.5725490860269539e-02 0.0000000000000000e+00  0.0000000000000000e+00 5.4923811398054093e-02 0.0000000000000000e+00  0.0000000000000000e+00 5.4145986812138398e-02 0.0000000000000000e+00  0.0000000000000000e+00 5.3396025699568944e-02 0.0000000000000000e+00  0.0000000000000000e+00 5.2670337472622043e-02 0.0000000000000000e+00  0.0000000000000000e+00 5.1969656062662704e-02 0.0000000000000000e+00  0.0000000000000000e+00 5.1295747912401574e-02 0.0000000000000000e+00  0.0000000000000000e+00 5.0645757584859327e-02 0.0000000000000000e+00  0.0000000000000000e+00 4.9394215110593921e-02 0.0000000000000000e+00  0.0000000000000000e+00 4.8744232352482861e-02 0.0000000000000000e+00  0.0000000000000000e+00 4.8070810450448365e-02 0.0000000000000000e+00  0.0000000000000000e+00 4.7373883206471470e-02 0.0000000000000000e+00  0.0000000000000000e+00 4.6651002917544857e-02 0.0000000000000000e+00  0.0000000000000000e+00 4.5900438509240291e-02 0.0000000000000000e+00  0.0000000000000000e+00 4.5124874639918676e-02 0.0000000000000000e+00  0.0000000000000000e+00 4.4325010574932239e-02 0.0000000000000000e+00  0.0000000000000000e+00 4.3498985983739247e-02 0.0000000000000000e+00  0.0000000000000000e+00 4.2646716012018575e-02 0.0000000000000000e+00  0.0000000000000000e+00 4.1764576252833800e-02 0.0000000000000000e+00  0.0000000000000000e+00 4.0858962405536062e-02 0.0000000000000000e+00  0.0000000000000000e+00 3.9927279837326940e-02 0.0000000000000000e+00  0.0000000000000000e+00 3.8978194375582649e-02 0.0000000000000000e+00  0.0000000000000000e+00 3.8008164010752334e-02 0.0000000000000000e+00  0.0000000000000000e+00 3.7009687623980915e-02 0.0000000000000000e+00  0.0000000000000000e+00 3.5985452647029327e-02 0.0000000000000000e+00  0.0000000000000000e+00 3.4938756739773515e-02 0.0000000000000000e+00  0.0000000000000000e+00 3.3866215388674722e-02 0.0000000000000000e+00  0.0000000000000000e+00 3.2770406074224261e-02 0.0000000000000000e+00  0.0000000000000000e+00 3.1671780960066349e-02 0.0000000000000000e+00  0.0000000000000000e+00 3.0566144242819872e-02 0.0000000000000000e+00  0.0000000000000000e+00 2.9438518065676968e-02 0.0000000000000000e+00  0.0000000000000000e+00 2.8307312037644718e-02 0.0000000000000000e+00  0.0000000000000000e+00 2.7186284989179337e-02 0.0000000000000000e+00  0.0000000000000000e+00 2.6074714602157340e-02 0.0000000000000000e+00  0.0000000000000000e+00 2.4945768250285986e-02 0.0000000000000000e+00  0.0000000000000000e+00 2.3811422779443460e-02 0.0000000000000000e+00  0.0000000000000000e+00 2.2691182950678197e-02 0.0000000000000000e+00  0.0000000000000000e+00 2.1570717140944558e-02 0.0000000000000000e+00  0.0000000000000000e+00 2.0466426136990977e-02 0.0000000000000000e+00  0.0000000000000000e+00 1.9386669682319106e-02 0.0000000000000000e+00  0.0000000000000000e+00 1.8323163708786509e-02 0.0000000000000000e+00  0.0000000000000000e+00 1.7272890843628340e-02 0.0000000000000000e+00  0.0000000000000000e+00 1.6275780896357013e-02 0.0000000000000000e+00  0.0000000000000000e+00 1.5305725954096339e-02 0.0000000000000000e+00  0.0000000000000000e+00 1.4360765904016729e-02 0.0000000000000000e+00  0.0000000000000000e+00 1.3447148687888875e-02 0.0000000000000000e+00  0.0000000000000000e+00 1.2590666899982346e-02 0.0000000000000000e+00  0.0000000000000000e+00 1.1703810207039001e-02 0.0000000000000000e+00  0.0000000000000000e+00 1.0886338746423503e-02 0.0000000000000000e+00  0.0000000000000000e+00 1.0120916819830128e-02 0.0000000000000000e+00  0.0000000000000000e+00 9.4135525923692218e-03 0.0000000000000000e+00  0.0000000000000000e+00 8.7031416313974718e-03 0.0000000000000000e+00  0.0000000000000000e+00 8.0344361896097713e-03 0.0000000000000000e+00  0.0000000000000000e+00 7.3727651497785930e-03 0.0000000000000000e+00  0.0000000000000000e+00 6.7603662365034300e-03 0.0000000000000000e+00  0.0000000000000000e+00 6.1861975331380511e-03 0.0000000000000000e+00  0.0000000000000000e+00 5.5964920030623835e-03 0.0000000000000000e+00  0.0000000000000000e+00 5.0371573481758376e-03 0.0000000000000000e+00  0.0000000000000000e+00 4.4940535252717944e-03 0.0000000000000000e+00  0.0000000000000000e+00 3.9475022947492141e-03 0.0000000000000000e+00  0.0000000000000000e+00 3.4288780902163676e-03 0.0000000000000000e+00  0.0000000000000000e+00 2.9212720668158852e-03 0.0000000000000000e+00  0.0000000000000000e+00 2.4202261094963692e-03 0.0000000000000000e+00  0.0000000000000000e+00 1.9585949593953810e-03 0.0000000000000000e+00  0.0000000000000000e+00 1.5132253607160664e-03 0.0000000000000000e+00  0.0000000000000000e+00 1.0763709769447225e-03 0.0000000000000000e+00  0.0000000000000000e+00 7.3395016651695390e-04 0.0000000000000000e+00  0.000000000