<?xml version="1.0"?>
<VTKFile type="UnstructuredGrid"  version="0.1"  >
<UnstructuredGrid>
<Piece  NumberOfPoints="2064" NumberOfCells="3842">
<Points>
<DataArray  type="Float64"  NumberOfComponents="3"  format="ascii">0 0 0  0.4 0 0  0.4 0.4 0  0.4 2 0  0.4 2.4 0  0 2.4 0  0 1.2 0  0.09442719099991592 1.2 0  0.04999999999991419 0 0  0.09999999999976655 0 0  0.1499999999996174 0 0  0.1999999999994737 0 0  0.2499999999996012 0 0  0.2999999999997341 0 0  0.3499999999998725 0 0  0.4 0.04490054755780609 0  0.4 0.08728102288719632 0  0.4 0.127282861984852 0  0.4 0.1650395793634534 0  0.4 0.2006771614573222 0  0.4 0.2343145678202487 0  0.4 0.2660640514334936 0  0.4 0.2960315713318087 0  0.4 0.3243171534442337 0  0.4 0.3510151778607238 0  0.4 0.3762147593669765 0  0.3838325644673298 0.4184519041479398 0  0.3683953300346307 0.4368060584116434 0  0.3536615979029293 0.4550435590956501 0  0.3396051856135377 0.473147237722841 0  0.3262004928426353 0.4911015157475286 0  0.3134225038405827 0.5088923356151951 0  0.3012468350136632 0.5265070301161103 0  0.289649727202514 0.5439342653019726 0  0.2786080797806054 0.5611639229961951 0  0.2680994518128559 0.5781870282993612 0  0.2581020577925817 0.594995687384956 0  0.2485947966955289 0.6115829684453767 0  0.2395572159226798 0.6279428912420084 0  0.2309695402541045 0.6440703056409012 0  0.2228126456010115 0.6599608661499604 0  0.2150680649468926 0.6756109488118054 0  0.2077179652425745 0.6910176244172292 0  0.2007451581747424 0.7061785635724216 0  0.1941330685533778 0.7210920296031775 0  0.187865731362808 0.7357568136786556 0  0.1819277784059361 0.7501721918577611 0  0.1763044223842591 0.7643378897548474 0  0.1709814462523012 0.7782540354567948 0  0.1659451816940687 0.7919211416000106 0  0.1611825004958043 0.8053400559415214 0  0.1566807969567119 0.8185119361740301 0  0.1524279714485859 0.8314382242497815 0  0.1484124145310832 0.8441206213966692 0  0.1446229953612439 0.8565610509978405 0  0.1410490406726472 0.8687616532651306 0  0.1376803237536894 0.8807247502294573 0  0.1345070480820316 0.8924528295474728 0  0.1315198313379682 0.9039485300761398 0  0.1287096917422226 0.9152146212945773 0  0.1260680347252623 0.926253982770195 0  0.1235866354816217 0.9370696032148178 0  0.1212576294634056 0.9476645488952582 0  0.1190734945680743 0.9580419699947785 0  0.1170270419973136 0.9682050709600152 0  0.1151114007074783 0.9781571124265547 0  0.1133200055160031 0.9879013993486245 0  0.1116465857084123 0.9974412684028026 0  0.1100851540973415 1.00678007446057 0  0.1086299919107812 1.015921205370188 0  0.1072756432488249 1.024868042116264 0  0.1060168996208661 1.033623982063629 0  0.1048487921770971 1.042192417627859 0  0.1037665809790429 1.050576736266659 0  0.1027657469680525 1.058780303045589 0  0.1018419796222241 1.066806480626017 0  0.1009911707048814 1.074658604354542 0  0.100209404358178 1.082339989509986 0  0.09949294970732381 1.089853919786047 0  0.09883825188846673 1.097203654372538 0  0.09824192517424879 1.104392417551853 0  0.09770074530898887 1.111423399342931 0  0.09721164246300873 1.118299753112525 0  0.09677169442723854 1.125024593837347 0  0.09637812005447888 1.131600997033756 0  0.09602827298084238 1.138031997847958 0  0.09571963585538867 1.144320585137491 0  0.09544981410873254 1.150469709236281 0  0.09521653091090854 1.156482271096842 0  0.09501762139786152 1.162361132495572 0  0.09485102799585166 1.168109105493136 0  0.09471479534921778 1.17372895658593 0  0.09460706563777421 1.179223407979745 0  0.0945260742084173 1.184595133154879 0  0.09447014520952024 1.18984676120699 0  0.09443768756826221 1.194980871205597 0  0.09443806302859437 1.205108106364119 0  0.0944729919958105 1.210484287883107 0  0.09453577090937082 1.216142490300296 0  0.09463066380701091 1.222097360381834 0  0.0947624594889982 1.228364272753548 0  0.09493653111586542 1.234959359990207 0  0.09515890239686042 1.241899545953364 0  0.09543632088446197 1.249202574930454 0  0.09577633904503413 1.256887038135555 0  0.09618740432963668 1.264972406761361 0  0.0966789587196919 1.273479058714701 0  0.09726154875905446 1.282428302408976 0  0.09794694731159104 1.291842400140276 0  0.09874828856820561 1.301744593368398 0  0.09968021618774325 1.312159110985963 0  0.1007590472181439 1.323111179510956 0  0.1020029535614844 1.334627032832841 0  0.1034321610687219 1.346733904327509 0  0.1050691685317944 1.359460008750532 0  0.1069389890698906 1.372834517030006 0  0.1090694154101453 1.386887516567777 0  0.1114913103057413 1.401649949581689 0  0.1142389217184392 1.41715351493907 0  0.1173502356392664 1.433430591737466 0  0.1208673508568801 1.450514074661389 0  0.1248368950934375 1.468437217466946 0  0.1293104684030106 1.487233394167611 0  0.1343451326727159 1.506935853147407 0  0.1400039326793197 1.527577381161243 0  0.1463564603139997 1.549189915865717 0  0.1534794513310238 1.571804055040348 0  0.1614574289723265 1.59544850275497 0  0.1703833808249424 1.620149393439201 0  0.1803594611147896 1.645929471137086 0  0.191497735209273 1.672807165289779 0  0.2039209237677404 1.700795448389207 0  0.2177631713050063 1.729900546040858 0  0.2331708044748657 1.760120417463775 0  0.2503030499535754 1.791442962663554 0  0.2693327082756052 1.823843972070083 0  0.2904467283334415 1.857284740872639 0  0.313846664572799 1.891709354564414 0  0.3397489262043362 1.927041546768065 0  0.3683847768932553 1.963181136608806 0  0.4 2.044900547557741 0  0.4 2.087281022887292 0  0.4 2.127282861984825 0  0.4 2.165039579363555 0  0.4 2.200677161457211 0  0.4 2.234314567819979 0  0.4 2.266064051433231 0  0.4 2.29603157133185 0  0.4 2.324317153444571 0  0.4 2.351015177861111 0  0.4 2.376214759367253 0  0.3762147593670869 2.4 0  0.3510151778609575 2.4 0  0.3243171534446052 2.4 0  0.296031571332334 2.4 0  0.2660640514341884 2.4 0  0.2343145678211326 2.4 0  0.200677161458414 2.4 0  0.165039579364376 2.4 0  0.1272828619855727 2.4 0  0.08728102288768802 2.4 0  0.04490054755804584 2.4 0  0 2.351390275785884 0  0 2.304552731578128 0  0 2.259422753650416 0  0 2.215938095776203 0  0 2.174038769221176 0  0 2.133666973505663 0  0 2.094767030761372 0  0 2.057285274882487 0  0 2.021169996669198 0  0 1.98637139041763 0  0 1.952841448848309 0  0 1.920533905270079 0  0 1.889404216687487 0  0 1.859409431581987 0  0 1.830508174253126 0  0 1.802660578364919 0  0 1.775828229457246 0  0 1.749974120892053 0  0 1.725062579668715 0  0 1.701059245975984 0  0 1.677931008439425 0  0 1.655645964869692 0  0 1.634173369332893 0  0 1.613483613383766 0  0 1.593548147670557 0  0 1.574339474861461 0  0 1.555831095205801 0  0 1.537997486363343 0  0 1.520814036475161 0  0 1.504257050792596 0  0 1.488303689738582 0  0 1.47293194468338 0  0 1.458120611126952 0  0 1.443849259716804 0  0 1.430098202826807 0  0 1.416848471990003 0  0 1.404081790973001 0  0 1.391780548456538 0  0 1.379927775838647 0  0 1.36850712315392 0  0 1.357502837034801 0  0 1.346899736933002 0  0 1.336683196700207 0  0 1.326839124824946 0  0 1.317353941220879 0  0 1.308214562093801 0  0 1.299408378803474 0  0 1.290923246392895 0  0 1.282747456144235 0  0 1.274869735093633 0  0 1.267279214098316 0  0 1.259965423665274 0  0 1.252918273094548 0  0 1.246128044148505 0  0 1.239585367106648 0  0 1.23328121948346 0  0 1.227206903233693 0  0 1.221354040630691 0  0 1.215714557462727 0  0 1.210280675039678 0  0 1.205044896789031 0  0 1.194955103210978 0  0 1.189719324960339 0  0 1.1842854425373 0  0 1.178645959369345 0  0 1.172793096766355 0  0 1.166718780516599 0  0 1.160414632893424 0  0 1.15387195585158 0  0 1.147081726905552 0  0 1.14003457633484 0  0 1.132720785901815 0  0 1.125130264906515 0  0 1.117252543855931 0  0 1.109076753607291 0  0 1.100591621196733 0  0 1.091785437906426 0  0 1.082646058779372 0  0 1.07316087517533 0  0 1.063316803300096 0  0 1.053100263067329 0  0 1.042497162965573 0  0 1.031492876846507 0  0 1.020072224161836 0  0 1.008219451544004 0  0 0.9959182090276039 0  0 0.9831515280106697 0  0 0.969901797173938 0  0 0.9561507402840164 0  0 0.9418793888739494 0  0 0.9270680553176084 0  0 0.9116963102624975 0  0 0.8957429492085807 0  0 0.8791859635261186 0  0 0.8620025136380454 0  0 0.8441689047957012 0  0 0.8256605251401634 0  0 0.8064518523311963 0  0 0.7865163866181252 0  0 0.7658266306691419 0  0 0.7443540351324957 0  0 0.7220689915629243 0  0 0.6989407540265372 0  0 0.6749374203339855 0  0 0.6500258791108374 0  0 0.6241717705458441 0  0 0.5973394216383467 0  0 0.5694918257499931 0  0 0.5405905684209703 0  0 0.5105957833153173 0  0 0.479466094732611 0  0 0.4471585511542315 0  0 0.4136286095847471 0  0 0.3788300033330131 0  0 0.3427147251195944 0  0 0.305232969240564 0  0 0.2663330264961172 0  0 0.225961230780293 0  0 0.1840619042249165 0  0 0.1405772463503563 0  0 0.09544726842240769 0  0 0.04860972421439458 0  0.04813671057256446 1.197473279821492 0  0.04895543136439754 1.151270788221793 0  0.04738437551928104 1.245081661106426 0  0.2256341401927007 0.335035210600554 0  0.0512759040765693 1.103565270882211 0  0.1570277503437201 0.4710961631110478 0  0.04891680688198799 1.294160758757891 0  0.05568190394618851 1.057427469737321 0  0.05765554841188782 1.003616718285677 0  0.1206184164719817 0.6010910013922988 0  0.2174958646397733 2.217495864639892 0  0.06616240375728431 1.175917411653735 0  0.09608236746672907 0.7063802628109249 0  0.02794287230014219 1.219415480129978 0  0.06431259901636358 1.220489754068911 0  0.02794535307324082 1.174496345043953 0  0.06296426494091534 0.9414057385563683 0  0.08050882020181049 0.7988485989880517 0  0.0719103235923903 0.86993553852932 0  0.1823275170984414 2.037281568815077 0  0.04971518892196945 1.344501211918876 0  0.2490207822396599 0.1848651832981602 0  0.052494558421043 1.396392612075255 0  0.1344185702276811 1.870543477222118 0  0.07221302203322316 1.197443967850841 0  0.06629456243276534 1.127713702579542 0  0.03033713389389925 1.127495065716931 0  0.02186182423217333 1.197477551605483 0  0.06191152475830487 1.458801491557402 0  0.1109984100569154 1.762901175174654 0 
[...]
<PointData  Scalars="f_846"> 
<DataArray  type="Float64"  Name="f_846"  format="ascii">2.7620319594338326e-02  9.3327948756774318e-02  6.8528177488432398e-03  1.8589655831225481e-02  1.2093387726540522e-01  2.7895858352610381e-02  1.2394667787764617e+00  1.3273591812809669e+00  1.4949101087063807e-02  2.4635869017996172e-02  2.6804622216826019e-02  4.1039642545440229e-02  4.8398978881159717e-02  5.4634240330697012e-02  5.9289378337290366e-02  9.8380292444902123e-02  5.4943134928791333e-02  4.9687970255196737e-02  4.8206921161480440e-02  5.0579882453992309e-02  4.6369225164395879e-02  4.3605662914030251e-02  4.0724356484508735e-02  3.2253858789550317e-02  2.9409425798986168e-02  1.9386730566660855e-02  2.1220633092766481e-02  3.7948065095012661e-02  5.0872908571913969e-02  6.5268182950562095e-02  7.4549101597461517e-02  9.3456576451091594e-02  1.0632225962765743e-01  1.2371114527950081e-01  1.3215505355181145e-01  1.4654616123944711e-01  1.6426557430097402e-01  1.8732585119161316e-01  1.9156016669585010e-01  2.1811037226807339e-01  2.3273679817920573e-01  2.5046551617888929e-01  2.6760678025339790e-01  2.9594445754531079e-01  3.0310760128816600e-01  3.3858514161163411e-01  3.4543854108975702e-01  3.7996436598273897e-01  3.8634288443150455e-01  4.2390999707156324e-01  4.6180249729586875e-01  4.6610819789663344e-01  5.0740766134917181e-01  5.4213694041833915e-01  5.4259873450652574e-01  5.9765268807744198e-01  6.1064325559527599e-01  6.4627199603283236e-01  6.7526454935463354e-01  7.2293178725239904e-01  7.2254053358376846e-01  7.8129264775280438e-01  7.9473868597490349e-01  8.2784711851298898e-01  8.5575575231064804e-01  9.0518223467533165e-01  9.1302195001574848e-01  9.2511917827555989e-01  9.7819345751752707e-01  9.8519588050146911e-01  1.0162812802250023e+00  1.0617689898099436e+00  1.0642516285817722e+00  1.0806665093386212e+00  1.1267845094139526e+00  1.1301749907670047e+00  1.1587393175992471e+00  1.1845191063541380e+00  1.1844558871675253e+00  1.2121196685658608e+00  1.2215153312867437e+00  1.2312718298925098e+00  1.2361408920660792e+00  1.2579257995580237e+00  1.2707003899611058e+00  1.2906218080934406e+00  1.2893858302977272e+00  1.2918096574677167e+00  1.2980076123049817e+00  1.3107583053498633e+00  1.3162114137120402e+00  1.3126579172918877e+00  1.3262064702891188e+00  1.3268627010701759e+00  1.3215510495032490e+00  1.3268769146594728e+00  1.3232186677760267e+00  1.3294695799104532e+00  1.3259218468344478e+00  1.3145439138072024e+00  1.3175538809724512e+00  1.3181447312056811e+00  1.2997060205454096e+00  1.2996869800037847e+00  1.2802516077390595e+00  1.2754761017493061e+00  1.2697478564044979e+00  1.2442133211035511e+00  1.2278502887445131e+00  1.1970018617778770e+00  1.2012271551574716e+00  1.1500723371037753e+00  1.1469336425208936e+00  1.0844862972947582e+00  1.0821408817008480e+00  1.0248305727530336e+00  9.7996019640794008e-01  9.3646072320319251e-01  9.0896012942164162e-01  8.4650309194003748e-01  8.0087266566993931e-01  7.5836223900872668e-01  6.8832278061521857e-01  6.4975231145698564e-01  5.9124270247260624e-01  5.5573910068400334e-01  5.0610149616616262e-01  4.4429263081144621e-01  4.0318614196010188e-01  3.4932886262394136e-01  3.2543241398515221e-01  2.7949211913163508e-01  2.3993156293896187e-01  2.1834309389707926e-01  1.6736045751418663e-01  1.5053527755663643e-01  1.1548841959011599e-01  9.6083575224755066e-02  6.3582153047210058e-02  3.4010009580497692e-02  2.8085919432869318e-02  3.5153574724251568e-02  4.3885210266281387e-02  4.6445120845669360e-02  4.7521614355081225e-02  4.8006839603446275e-02  5.3379392827235993e-02  5.0343441647175136e-02  6.2353892318885072e-02  7.0690952352516892e-02  1.0820129057906659e-01  7.5241480803108676e-02  6.7258023888624702e-02  6.1339378683144818e-02  5.2336229383285041e-02  4.7668367451943409e-02  4.4742665924383945e-02  3.9902451611268819e-02  3.3860616397808324e-02  2.5672010965069686e-02  2.3161313513446882e-02  1.1145018293126101e-02  4.8391069236500883e-02  5.7877253688770308e-02  7.8964669744903598e-02  9.2902411865776593e-02  1.0460831684529102e-01  1.2233036451013372e-01  1.2715416611329258e-01  1.3736673056433024e-01  1.4621650106929807e-01  1.5374459084942829e-01  1.6445026787614378e-01  1.6596003174853280e-01  1.8158738090342411e-01  1.9229114773723177e-01  2.1592243784684545e-01  2.4508731322211305e-01  2.5567046242328417e-01  2.6042407216703461e-01  2.8496488446264734e-01  3.4034286527485175e-01  3.5508533591596597e-01  3.8782288478573967e-01  4.1276071245524298e-01  4.3156574032539219e-01  4.6548630359765625e-01  5.1324138659922403e-01  5.3878071008342709e-01  5.8311105763050886e-01  6.4569317783937452e-01  6.6733467879031638e-01  6.8753002773266281e-01  7.4880471245511060e-01  7.6739827350352208e-01  7.9451274277134221e-01  8.3485906603078397e-01  8.7646887366658033e-01  9.0546057576547267e-01  9.3723642318580225e-01  9.5088009078464863e-01  9.9930761857711559e-01  1.0279832069140487e+00  1.0355932779435186e+00  1.0692402339521985e+00  1.0949563342034350e+00  1.1109440555526446e+00  1.1173999668727652e+00  1.1304940768917040e+00  1.1519925910468216e+00  1.1743466361546779e+00  1.1814001526387101e+00  1.1863760000989310e+00  1.2087263268339594e+00  1.2195162854234762e+00  1.2222458420281526e+00  1.2286217168429383e+00  1.2330106015501567e+00  1.2361094861254043e+00  1.2411477231526091e+00  1.2399109899008436e+00  1.2383869465360104e+00  1.2408907278119801e+00  1.2383515304787354e+00  1.2400182450326624e+00  1.2360061508409128e+00  1.2325974937052724e+00  1.2350563920372015e+00  1.2329501911726932e+00  1.2249438686067935e+00  1.2176492980694544e+00  1.2109383585128872e+00  1.2076899083603818e+00  1.2009741391853843e+00  1.1832617797510006e+00  1.1740898145512189e+00  1.1502870745072036e+00  1.1368308266238889e+00  1.1258259030887068e+00  1.1100430566879709e+00  1.0974273123669058e+00  1.0838635108316397e+00  1.0554408376131210e+00  1.0191829002524773e+00  9.9433251177429272e-01  9.7692004752174133e-01  9.3853515117272202e-01  8.7987019346795903e-01  8.6577117694347860e-01  8.4694825266166196e-01  8.0306333395988361e-01  7.7631097060468623e-01  7.3595040607865281e-01  7.0156456585940230e-01  6.6636708543728940e-01  6.2736391405018321e-01  5.9215043622918140e-01  5.3514061757177023e-01  5.2204724996794061e-01  4.7746257641184170e-01  4.3513969470313524e-01  4.2546623602596179e-01  3.8774215768021270e-01  3.4938724759619816e-01  3.1239990485398189e-01  2.9271267477157342e-01  2.7293320278738642e-01  2.5579886954310627e-01  2.3412925209875010e-01  2.1000120346824042e-01  1.9780505679636790e-01  1.8826029927475887e-01  1.7407828067015871e-01  1.6775516134923737e-01  1.5406792943521821e-01  1.4467862786203714e-01  1.3706760735433246e-01  1.2797594920672062e-01  1.1313290047537498e-01  1.0961960935542939e-01  9.3536904500400128e-02  7.2272204588353151e-02  5.7823001461700357e-02  5.3538339321350777e-02  1.2543011931364800e+00  1.2306393954824484e+00  1.2377071640569777e+00  9.5473858619759447e-02  1.1663040961018725e+00  1.4183801649105016e-01  1.1671563248177625e+00  1.0626637443229638e+00  9.1958067710284941e-01  2.0836284661271651e-01  7.8933824165080574e-02  1.2714323466778221e+00  3.0781950303140848e-01  1.2375993541569916e+00  1.2691300046348417e+00  1.2330129069523741e+00  7.6568816927528049e-01  4.4323002285123558e-01  5.9686725309456756e-01  1.1341695803149067e-01  1.0686658928548542e+00  7.3413361411812331e-02  9.3064724092774898e-01  1.6708349996753427e-01  1.2819951953349957e+00  1.2177814350109513e+00  1.1899157587062774e+00  1.2437031523340705e+00  7.6111068361037093e-01  2.4070200797562596e-01  1.1977840269419837e+00  1.0598768728032826e-01  6.0848016323735532e-01  4.3509509101554766e-01  1.2603544586804531e+00  1.1391983173964308e+00  1.2258012382058563e+00  1.2259913372063955e+00  1.2307640487178451e+00  1.5370722514987856e-01  1.2915200568850640e-01  1.1104510972052142e+00  1.2613964781425431e+00  9.7770532219728798e-02  2.6024595111990279e-01  1.0188366360378029e+00  8.6194030654567622e-01  1.2482824185379813e+00  6.7820477587161365e-02  3.9563321019134268e-01  6.9470430695222818e-01  1.2510006145192742e+00  6.4808482699255029e-02  1.0051984121956896e+00  3.1169121615447809e-01  1.1073536410121361e+00  1.1959779859228963e+00  7.5482514807887119e-02  1.7515570142885384e-01  1.1543157952378171e+00  1.0160994846235800e-01  5.1197968287012774e-01  1.9500961325380625e-01  1.1404205637916731e+00  6.7809511781966120e-02  8.3785083453737819e-01  1.4538293476560138e-01  2.5421160915857849e-01  6.4575941444779142e-02  3.1809734832826914e-01  1.1617446335936858e+00  6.8191504324527130e-01  3.6396400246511096e-01  6.4249556466207142e-02  1.1072461580244843e+00  9.5214466047497504e-01  1.2925972269299566e+00  1.2110044947713150e+00  1.1968498635744791e+00  1.2950228493055995e+00  1.1675315822193817e-01  1.2650343531720107e+00  1.2465586086129865e+00  1.2836468081350552e+00  1.2417983402750652e+00  1.5000615264769310e-01  9.8737781411920711e-01  1.2419135248669071e+00  1.2692554237576648e+00  1.2357445557552653e+00  1.2464755144437760e+00  7.7523297083767018e-01  1.1734954799275647e-01  5.1393836301754325e-01  1.2347306349355121e+00  6.0485915098744447e-01  6.3810657312861799e-02  1.2296698580577077e+00  1.2367214565297184e+00  9.9265116135845910e-01  1.2153458912720759e-01  1.2837362954974791e+00  1.0536308978290840e+00  5.7598230949342431e-02  1.2534977048306155e+00  1.2550776412159239e+00  8.4288979928756735e-01  1.2592931032815351e+00  9.1674302420840548e-01  1.2124890116094349e+00  2.0898104684312838e-01  2.0043201075015979e-01  4.5301611054992669e-01  1.0403174939713171e+00  8.6804765098589753e-01  6.6926492583578567e-01  5.4892130868243461e-01  1.2976063515533973e-01  7.6356024970447176e-02  6.5772164118141158e-02  1.1290977197200971e+00  1.2089733368390143e+00  1.2093190676821413e+00  8.9257130405641288e-02  1.2354021918828271e+00  1.0868969219758127e+00  1.9073761624565808e-01  7.6455247271631077e-01  3.8772261279240194e-01  2.9207582484036260e-01  3.1814140433008925e-01  1.7115319048567687e-01  1.2199178784361253e+00  6.9591909526385498e-02  2.3171243640773162e-01  1.2309014429246419e+00  1.2119376924160485e+00  6.6306801011257333e-01  3.7269803314072597e-01  8.7617991828328939e-02  1.6815964771287048e-01  5.8554210120104810e-01  4.4639537868034657e-01  1.2569061635169112e+00  5.0974902547846490e-01  1.2364057303402469e+00  2.7435838043716682e-01  1.6849982965696403e-01  1.1622455332730906e-01  1.1799060255453000e+00  8.8038489580313059e-02  1.0198303778452020e+00  6.2051303101660384e-02  1.1894717167167310e+00  1.3117753379176911e+00  1.1746398908671676e+00  9.2148737774765538e-02  9.1769323168041539e-01  1.2411299058548388e+00  1.1793563500233442e+00  5.6559832835632547e-02  2.3633774400715077e-01  1.1894956195076278e+00  1.0732248500512692e-01  1.4772960240146760e-01  7.6527120260281023e-01  1.1187676062282621e+00  8.8351645797678569e-02  5.9772469872410902e-02  1.1289805686148287e+00  1.1384911403714610e+00  1.4647458919505113e-01  9.2727255918832116e-02  9.4693370596640636e-01  1.2607865289010984e+00  8.8834007007623761e-01  4.7992905868466695e-01  1.2319318289484666e+00  1.2186909578695460e+00  6.0040913854484301e-01  9.1596552168368581e-02  1.2886634868285822e+00  1.2360033853674175e+00  1.1893001848660520e+00  1.0665059685982037e+00  1.2280105938543098e+00  1.1367219905175494e+00  1.1670234936280550e+00  2.9353497009646545e-01  3.5644239300646885e-01  1.1225598995420345e+00  5.3265202421993130e-01  1.2309357864243848e+00  9.1481326519316508e-01  1.2644053145244429e+00  1.2554021670351748e-01  7.0304491901126875e-01  1.2903573256786360e+00  7.3932778749859884e-01  1.2488063665310174e+00  1.0025148661496552e+00  9.7639690633150356e-01  7.8185897311101038e-01  8.5966758918937480e-01  1.3338312303895586e-01  6.2443448205071618e-02  1.0932431896330104e+00  1.2790363984839472e+00  4.7809747235473425e-02  1.0665699117705212e+00  1.2524403665642208e+00  7.6571405821383276e-02  5.4783383825518561e-02  1.2457523783284197e+00  2.2170831132342073e-01  3.7476429462751665e-01  5.6409887320457841e-01  4.4076650744120627e-01  6.8386221476651532e-01  1.2302539361482965e+00  1.2524402042585476e+00  1.2489515018867152e+00  1.2426579808876517e+00  2.3567975984070275e-01  1.2794082849002435e+00  1.1155464733968237e+00  1.2357028177198346e+00  1.1951495553927884e+00  8.1476788909161146e-01  1.4255816746140657e-01  8.5895237543148484e-02  6.0734743463274332e-01  1.2610510487063669e+00  4.9927765858820350e-01  1.0069237623905039e+00  5.8479707488183728e-02  1.1691412374078485e+00  1.2441971058977614e+00  1.0526438073340751e+00  6.3442804351625548e-01  1.0420514841175432e+00  1.4187105289277360e-01  1.0012355299514044e+00  1.1352071402196340e+00  3.2658444830709243e-01  1.2457770864463231e+00  5.7420196058061743e-02  7.9699016555741131e-02  1.2990966609092145e+00  1.0847611889698763e+00  1.6910822645432144e-01  8.9930280972435883e-01  1.8878926830212178e-01  1.2231179195525843e+00  4.5197756298888357e-02  1.2595891895410178e+00  1.2395851415163492e+00  8.7662038059458569e-01  1.7841832139956693e-01  2.3193622014195137e-01  4.0588901825887713e-01  4.1179090763653592e-01  1.1496381513650640e+00  2.7662296333393677e-01  4.6661833137112814e-02  1.1719335310566732e+00  1.2645961153800755e+00  1.1668020989216853e-01  1.5264428455969759e-01  9.7503430298859295e-01  8.8668419951531341e-01  1.2205763882186935e+00  1.3039118417892452e+00  7.0510917650518812e-01  1.1622781529039987e+00  1.5292935493380944e-01  4.5820882744696895e-02  5.5657949598489864e-01  1.2773288712551034e+00  2.7503891319110901e-01  9.5397604324065577e-01  7.7152619538312400e-02  1.2146081915378770e+00  7.3471979856422631e-01  1.8723474536558560e-01  1.2493062386786535e+00  1.4382187898461679e-01  5.4298556632747394e-02  2.7712374514133531e-01  2.0019557959931267e-01  1.0835608859130859e+00  1.2020994938930050e+00  1.3104176550159601e+00  1.0111602165002465e+00  1.2077761005463499e+00  1.3104243154307396e+00  1.9559938543768268e-01  6.6301383486570845e-02  2.4189202146150510e-01  1.2423579154406088e+00  1.2403310396882803e+00  1.2512297985053420e+00  1.1338496895366472e-01  9.4543348681245240e-02  7.1502756505300225e-01  1.2832913673357267e+00  1.1392850042230038e+00  8.2935633622465743e-01  1.2360761133914504e+00  1.1810508712732817e+00  8.6639681024552373e-01  8.7378597451544235e-02  8.6925394126480804e-01  1.5717051732630558e-01  2.6005277941278826e-01  2.2253895815727442e-01  4.7586188155718284e-01  6.9480240682079891e-02  1.1957827475931750e+00  3.8440103350071225e-01  6.4796218703144914e-01  1.2450154329804153e+00  8.0325547964907762e-01  1.2464018458772230e+00  3.5629330937440523e-01  1.2575689469872404e+00  1.2406287808658913e+00  1.1624276196594567e+00  4.2023289874531955e-01  3.5578118046980789e-01  5.7026768895335915e-02  3.3361142866848587e-01  1.3001614781959220e-01  1.2467418022476975e+00  1.2867804602688124e+00  2.8521348766273774e-01  1.3787456984408117e-01  1.2263704282717911e+00  6.4522955998386478e-02  1.1565389896917444e+00  6.1571227006608320e-01  1.2727444263136558e+00  2.8327303298741063e-01  1.0647695566161053e-01  1.0919523260985764e+00  1.1364332570962936e-01  5.9293205267886361e-02  1.2489383594686645e+00  1.8427629497916681e-01  3.9419475273543264e-01  1.2597657053791196e+00  1.1617355643751130e-01  1.0272628444328682e+00  1.2358683836753066e+00  1.2396811263705230e+00  3.3132923067614606e-01  1.2945170704944491e+00  7.1614315107914961e-01  1.0538372158315795e-01  7.7166618682224145e-02  1.1059720494164200e+00  9.6208106909676117e-01  1.2958062287509542e+00  5.5443868086248749e-01  9.5702773722857537e-01  5.4373548169364938e-01  1.2150758974498945e+00  1.2444409790946065e+00  1.2717833851125016e+00  6.1614729764986761e-02  3.3779655540787018e-01  1.0387399838087903e+00  1.2171159240115198e-01  7.0110717266494593e-01  1.2432422202363644e+00  1.0466562336397629e+00  1.2404483212497159e+00  1.2099631130735835e+00  1.2459722978305856e+00  8.3628440462071363e-01  7.2603855390105040e-02  4.8231252507819289e-01  5.4096385315571860e-01  4.4876860382491023e-02  1.1169439730697919e+00  1.2937621506350696e+00  8.7102556071983139e-01  6.6056284399739362e-01  8.1449384124719093e-01  1.3023813813658022e-01  5.0476522441666727e-02  1.2052640359891902e+00  1.0564489867139407e-01  1.1966651041881400e+00  1.0300028996368434e-01  1.2173792186872996e+00  1.0937338660032208e+00  6.8507966781072516e-02  1.2232630915913130e+00  6.4068279022863361e-01  7.4343270198735559e-02  9.9515420216450035e-01  1.2350509429937329e+00  1.2368637919822558e+00  4.3447338376346789e-01  1.0313847248753096e+00  1.2357403896909811e+00  8.0719359067651986e-01  4.8158451143819808e-01  1.2697713811913749e+00  1.2092509280225860e+00  1.9695029425870161e-01  1.2178103819001389e+00  1.0757655821355732e+00  1.2491661958659721e+00  9.5203429926713767e-01  6.8153734959504969e-02  1.0161270545059091e+00  1.2699153839911355e+00  1.2235253183479544e+00  1.2500845823472704e+00  1.5515674938082993e-01  5.7474744583115606e-02  1.2627277912714712e+00  1.2698545877313698e+00  4.5233793536613071e-01  5.0516247071849436e-02  1.5475185939903649e-01  1.2439266652809846e+00  5.6557047488169032e-02  1.1377772013121223e+00  7.8831933692786149e-01  5.7062273253520542e-02  6.5951158197840698e-01  9.5092725084541296e-01  1.2076034076708333e+00  1.2673443783000586e+00  7.4550208408249330e-02  1.1644865577519885e+00  9.6868050456337715e-02  1.2039734453917104e+00  1.2036657866381528e+00  1.0536553841530618e+00  8.8960953060358106e-01  1.2462868473521949e+00  1.2929683140042178e-01  1.1898662712716594e+00  1.2085276064050583e+00  1.2594770281183887e+00  2.0378411527049492e-01  1.1843587949013894e+00  7.1142634915720857e-02  1.5700850558486837e-01  5.4263289124385572e-01  1.1564327609277882e+00  1.2072872091048974e-01  1.2313726661607665e+00  9.5416313570615718e-01  8.4616369652238621e-02  1.3004797380828339e+00  1.2290502848784826e+00  1.0835947061236457e+00  3.2642245590087210e-01  7.9854350002309427e-01  6.0831639324503939e-01  2.1886410320792382e-01  1.1347382183667538e+00  1.6140540994956620e-01  1.1542925506762252e+00  1.8054703605680256e-01  1.2745013336097014e-01  1.2032751917051214e+00  8.1327047915807082e-02  1.0655479856171790e-01  1.2686208925279392e+00  1.1886865750397682e-01  1.1477532684410701e+00  1.1942001817541468e+00  3.2627524522522866e-01  4.8575390119535455e-01  1.0745772604640116e-01  1.1326513193796728e+00  1.3901900825169106e-01  1.0592394024258200e+00  6.7437753664420133e-02  1.2768592221492059e+00  1.0708636023740605e+00  7.6835580508444679e-01  7.4395570578724965e-02  7.3210036386392752e-01  9.1042891427497552e-01  1.2622668598013889e-01  1.2278580328044300e+00  1.3073495096636598e+00  4.0464358492868224e-01  1.5555076821825173e-01  9.1440009658846036e-02  1.2600358092006447e+00  5.9096771535359571e-01  1.1401198339494121e+00  1.2417149111636299e+00  1.7925597248996430e-01  1.2143313203964818e+00  6.4819317162697043e-01  8.4368649684346553e-01  1.0306350019281826e-01  5.7137853421427220e-01  1.1976896005184912e+00  2.8603973333348692e-01  1.3083252089786619e+00  1.1753607622304663e+00  8.9435617889940533e-01  1.1020281671494669e+00  3.5843938888109594e-01  9.3545545769099692e-01  1.0259584158513939e+00  1.1044820831444477e+00  4.7351159545867011e-01  1.2602165295223609e+00  2.5656774511524399e-01  1.2327940310663459e+00  1.0316399097352472e-01  4.9666419300333282e-02  5.1508754416387514e-01  1.4204212711579492e-01  1.1655266632698131e+00  1.2820380705925354e+00  2.6044042398375550e-01  7.1838942735005540e-01  7.3552709928781690e-01  1.2623000540367779e+00  4.7251641459425969e-01  2.1859800061641207e-01  8.6569449952312444e-02  8.0153846075324831e-01  1.2318423223617321e+00  7.3294183923346756e-01  5.4085268448787638e-01  1.1248180394901914e+00  1.2406122281161207e+00  9.2977230025963464e-01  1.6563086883549968e-01  1.8856607640124415e-01  9.6530637424589283e-01  8.5641091790211912e-02  1.812058870272470