<?xml version="1.0"?>
<VTKFile type="UnstructuredGrid"  version="0.1"  >
<UnstructuredGrid>
<Piece  NumberOfPoints="25921" NumberOfCells="25600">
<Points>
<DataArray  type="Float64"  NumberOfComponents="3"  format="ascii">0 0 0  0.00625 0 0  0.0125 0 0  0.01875 0 0  0.025 0 0  0.03125 0 0  0.0375 0 0  0.04375 0 0  0.05 0 0  0.05625 0 0  0.0625 0 0  0.06875000000000001 0 0  0.075 0 0  0.08125 0 0  0.08749999999999999 0 0  0.09375 0 0  0.1 0 0  0.10625 0 0  0.1125 0 0  0.11875 0 0  0.125 0 0  0.13125 0 0  0.1375 0 0  0.14375 0 0  0.15 0 0  0.15625 0 0  0.1625 0 0  0.16875 0 0  0.175 0 0  0.18125 0 0  0.1875 0 0  0.19375 0 0  0.2 0 0  0.20625 0 0  0.2125 0 0  0.21875 0 0  0.225 0 0  0.23125 0 0  0.2375 0 0  0.24375 0 0  0.25 0 0  0.25625 0 0  0.2625 0 0  0.26875 0 0  0.275 0 0  0.28125 0 0  0.2875 0 0  0.29375 0 0  0.3 0 0  0.30625 0 0  0.3125 0 0  0.31875 0 0  0.325 0 0  0.33125 0 0  0.3375 0 0  0.34375 0 0  0.35 0 0  0.35625 0 0  0.3625 0 0  0.36875 0 0  0.375 0 0  0.38125 0 0  0.3875 0 0  0.39375 0 0  0.4 0 0  0.40625 0 0  0.4125 0 0  0.41875 0 0  0.425 0 0  0.43125 0 0  0.4375 0 0  0.44375 0 0  0.45 0 0  0.45625 0 0  0.4625 0 0  0.46875 0 0  0.475 0 0  0.48125 0 0  0.4875 0 0  0.49375 0 0  0.5 0 0  0.50625 0 0  0.5125 0 0  0.51875 0 0  0.525 0 0  0.53125 0 0  0.5375 0 0  0.54375 0 0  0.55 0 0  0.55625 0 0  0.5625 0 0  0.56875 0 0  0.575 0 0  0.58125 0 0  0.5875 0 0  0.59375 0 0  0.6 0 0  0.60625 0 0  0.6125 0 0  0.61875 0 0  0.625 0 0  0.63125 0 0  0.6375 0 0  0.64375 0 0  0.65 0 0  0.65625 0 0  0.6625 0 0  0.66875 0 0  0.675 0 0  0.68125 0 0  0.6875 0 0  0.69375 0 0  0.7 0 0  0.70625 0 0  0.7125 0 0  0.71875 0 0  0.725 0 0  0.73125 0 0  0.7375 0 0  0.74375 0 0  0.75 0 0  0.75625 0 0  0.7625 0 0  0.76875 0 0  0.775 0 0  0.78125 0 0  0.7875 0 0  0.79375 0 0  0.8 0 0  0.80625 0 0  0.8125 0 0  0.81875 0 0  0.825 0 0  0.83125 0 0  0.8375 0 0  0.84375 0 0  0.85 0 0  0.85625 0 0  0.8625 0 0  0.86875 0 0  0.875 0 0  0.88125 0 0  0.8875 0 0  0.89375 0 0  0.9 0 0  0.90625 0 0  0.9125 0 0  0.91875 0 0  0.925 0 0  0.93125 0 0  0.9375 0 0  0.94375 0 0  0.95 0 0  0.95625 0 0  0.9625 0 0  0.96875 0 0  0.975 0 0  0.98125 0 0  0.9875 0 0  0.99375 0 0  1 0 0  0 0.00625 0  0.00625 0.00625 0  0.0125 0.00625 0  0.01875 0.00625 0  0.025 0.00625 0  0.03125 0.00625 0  0.0375 0.00625 0  0.04375 0.00625 0  0.05 0.00625 0  0.05625 0.00625 0  0.0625 0.00625 0  0.06875000000000001 0.00625 0  0.075 0.00625 0  0.08125 0.00625 0  0.08749999999999999 0.00625 0  0.09375 0.00625 0  0.1 0.00625 0  0.10625 0.00625 0  0.1125 0.00625 0  0.11875 0.00625 0  0.125 0.00625 0  0.13125 0.00625 0  0.1375 0.00625 0  0.14375 0.00625 0  0.15 0.00625 0  0.15625 0.00625 0  0.1625 0.00625 0  0.16875 0.00625 0  0.175 0.00625 0  0.18125 0.00625 0  0.1875 0.00625 0  0.19375 0.00625 0  0.2 0.00625 0  0.20625 0.00625 0  0.2125 0.00625 0  0.21875 0.00625 0  0.225 0.00625 0  0.23125 0.00625 0  0.2375 0.00625 0  0.24375 0.00625 0  0.25 0.00625 0  0.25625 0.00625 0  0.2625 0.00625 0  0.26875 0.00625 0  0.275 0.00625 0  0.28125 0.00625 0  0.2875 0.00625 0  0.29375 0.00625 0  0.3 0.00625 0  0.30625 0.00625 0  0.3125 0.00625 0  0.31875 0.00625 0  0.325 0.00625 0  0.33125 0.00625 0  0.3375 0.00625 0  0.34375 0.00625 0  0.35 0.00625 0  0.35625 0.00625 0  0.3625 0.00625 0  0.36875 0.00625 0  0.375 0.00625 0  0.38125 0.00625 0  0.3875 0.00625 0  0.39375 0.00625 0  0.4 0.00625 0  0.40625 0.00625 0  0.4125 0.00625 0  0.41875 0.00625 0  0.425 0.00625 0  0.43125 0.00625 0  0.4375 0.00625 0  0.44375 0.00625 0  0.45 0.00625 0  0.45625 0.00625 0  0.4625 0.00625 0  0.46875 0.00625 0  0.475 0.00625 0  0.48125 0.00625 0  0.4875 0.00625 0  0.49375 0.00625 0  0.5 0.00625 0  0.50625 0.00625 0  0.5125 0.00625 0  0.51875 0.00625 0  0.525 0.00625 0  0.53125 0.00625 0  0.5375 0.00625 0  0.54375 0.00625 0  0.55 0.00625 0  0.55625 0.00625 0  0.5625 0.00625 0  0.56875 0.00625 0  0.575 0.00625 0  0.58125 0.00625 0  0.5875 0.00625 0  0.59375 0.00625 0  0.6 0.00625 0  0.60625 0.00625 0  0.6125 0.00625 0  0.61875 0.00625 0  0.625 0.00625 0  0.63125 0.00625 0  0.6375 0.00625 0  0.64375 0.00625 0  0.65 0.00625 0  0.65625 0.00625 0  0.6625 0.00625 0  0.66875 0.00625 0  0.675 0.00625 0  0.68125 0.00625 0  0.6875 0.00625 0  0.69375 0.00625 0  0.7 0.00625 0  0.70625 0.00625 0  0.7125 0.00625 0  0.71875 0.00625 0  0.725 0.00625 0  0.73125 0.00625 0  0.7375 0.00625 0  0.74375 0.00625 0  0.75 0.00625 0  0.75625 0.00625 0  0.7625 0.00625 0  0.76875 0.00625 0  0.775 0.00625 0  0.78125 0.00625 0  0.7875 0.00625 0  0.79375 0.00625 0  0.8 0.00625 0  0.80625 0.00625 0  0.8125 0.00625 0  0.81875 0.00625 0  0.825 0.00625 0  0.83125 0.00625 0  0.8375 0.00625 0  0.84375 0.00625 0  0.85 0.00625 0  0.85625 0.00625 0  0.8625 0.00625 0  0.86875 0.00625 0  0.875 0.00625 0  0.88125 0.00625 0  0.8875 0.00625 0  0.89375 0.00625 0  0.9 0.00625 0  0.90625 0.00625 0  0.9125 0.00625 0  0.91875 0.00625 0  0.925 0.00625 0  0.93125 0.00625 0  0.9375 0.00625 0  0.94375 0.00625 0  0.95 0.00625 0  0.95625 0.00625 0  0.9625 0.00625 0  0.96875 0.00625 0  0.975 0.00625 0  0.98125 0.00625 0  0.9875 0.00625 0  0.99375 0.00625 0  1 0.00625 0  0 0.0125 0  0.00625 0.0125 0  0.0125 0.0125 0  0.01875 0.0125 0  0.025 0.0125 0  0.03125 0.0125 0  0.0375 0.0125 0  0.04375 0.0125 0  0.05 0.0125 0  0.05625 0.0125 0  0.0625 0.0125 0  0.06875000000000001 0.0125 0  0.075 0.0125 0  0.08125 0.0125 0  0.08749999999999999 0.0125 0  0.09375 0.0125 0  0.1 0.0125 0  0.10625 0.0125 0  0.1125 0.0125 0  0.11875 0.0125 0  0.125 0.0125 0  0.13125 0.0125 0  0.1375 0.0125 0  0.14375 0.0125 0  0.15 0.0125 0  0.15625 0.0125 0  0.1625 0.0125 0  0.16875 0.0125 0  0.175 0.0125 0  0.18125 0.0125 0  0.1875 0.0125 0  0.19375 0.0125 0  0.2 0.0125 0  0.20625 0.0125 0  0.2125 0.0125 0  0.21875 0.0125 0  0.225 0.0125 0  0.23125 0.0125 0  0.2375 0.0125 0  0.24375 0.0125 0  0.25 0.0125 0  0.25625 0.0125 0  0.2625 0.0125 0  0.26875 0.0125 0  0.275 0.0125 0  0.28125 0.0125 0  0.2875 0.0125 0  0.29375 0.0125 0  0.3 0.0125 0  0.30625 0.0125 0  0.3125 0.0125 0  0.31875 0.0125 0  0.325 0.0125 0  0.33125 0.0125 0  0.3375 0.0125 0  0.34375 0.0125 0  0.35 0.0125 0  0.35625 0.0125 0  0.3625 0.0125 0  0.36875 0.0125 0  0.375 0.0125 0  0.38125 0.0125 0  0.3875 0.0125 0  0.39375 0.0125 0  0.4 0.0125 0  0.40625 0.0125 0  0.4125 0.0125 0  0.41875 0.0125 0  0.425 0.0125 0  0.43125 0.0125 0  0.4375 0.0125 0  0.44375 0.0125 0  0.45 0.0125 0  0.45625 0.0125 0  0.4625 0.0125 0  0.46875 0.0125 0  0.475 0.0125 0  0.48125 0.0125 0  0.4875 0.0125 0  0.49375 0.0125 0  0.5 0.0125 0  0.50625 0.0125 0  0.5125 0.0125 0  0.51875 0.0125 0  0.525 0.0125 0  0.53125 0.0125 0  0.5375 0.0125 0  0.54375 0.0125 0  0.55 0.0125 0  0.55625 0.0125 0  0.5625 0.0125 0  0.56875 0.0125 0  0.575 0.0125 0  0.58125 0.0125 0  0.5875 0.0125 0  0.59375 0.0125 0  0.6 0.0125 0  0.60625 0.0125 0  0.6125 0.0125 0  0.61875 0.0125 0  0.625 0.0125 0  0.63125 0.0125 0  0.6375 0.0125 0  0.64375 0.0125 0  0.65 0.0125 0  0.65625 0.0125 0  0.6625 0.0125 0  0.66875 0.0125 0  0.675 0.0125 0  0.68125 0.0125 0  0.6875 0.0125 0  0.69375 0.0125 0  0.7 0.0125 0  0.70625 0.0125 0  0.7125 0.0125 0  0.71875 0.0125 0  0.725 0.0125 0  0.73125 0.0125 0  0.7375 0.0125 0  0.74375 0.0125 0  0.75 0.0125 0  0.75625 0.0125 0  0.7625 0.0125 0  0.76875 0.0125 0  0.775 0.0125 0  0.78125 0.0125 0  0.7875 0.0125 0  0.79375 0.0125 0  0.8 0.0125 0  0.80625 0.0125 0  0.8125 0.0125 0  0.81875 0.0125 0  0.825 0.0125 0  0.83125 0.0125 0  0.8375 0.0125 0  0.84375 0.0125 0  0.85 0.0125 0  0.85625 0.0125 0  0.8625 0.0125 0  0.86875 0.0125 0  0.875 0.0125 0  0.88125 0.0125 0  0.8875 0.0125 0  0.89375 0.0125 0  0.9 0.0125 0  0.90625 0.0125 0  0.9125 0.0125 0  0.91875 0.0125 0  0.925 0.0125 0  0.93125 0.0125 0  0.9375 0.0125 0  0.94375 0.0125 0  0.95 0.0125 0  0.95625 0.0125 0  0.9625 0.0125 0  0.96875 0.0125 0  0.975 0.0125 0  0.98125 0.0125 0  0.9875 0.0125 0  0.99375 0.0125 0  1 0.0125 0  0 0.01875 0  0.00625 0.01875 0  0.0125 0.01875 0  0.01875 0.01875 0  0.025 0.01875 0  0.03125 0.01875 0  0.0375 0.01875 0  0.04375 0.01875 0  0.05 0.01875 0  0.05625 0.01875 0  0.0625 0.01875 0  0.06875000000000001 0.01875 0  0.075 0.01875 0  0.08125 0.01875 0  0.08749999999999999 0.01875 0  0.09375 0.01875 0  0.1 0.01875 0  0.10625 0.01875 0  0.1125 0.01875 0  0.11875 0.01875 0  0.125 0.01875 0  0.13125 0.01875 0  0.1375 0.01875 0  0.14375 0.01875 0  0.15 0.01875 0  0.15625 0.01875 0  0.1625 0.01875 0  0.16875 0.01875 0  0.175 0.01875 0  0.18125 0.01875 0  0.1875 0.01875 0  0.19375 0.01875 0  0.2 0.01875 0  0.20625 0.01875 0  0.2125 0.01875 0  0.21875 0.01875 0  0.225 0.01875 0  0.23125 0.01875 0  0.2375 0.01875 0  0.24375 0.01875 0  0.25 0.01875 0  0.25625 0.01875 0  0.2625 0.01875 0  0.26875 0.01875 0  0.275 0.01875 0  0.28125 0.01875 0  0.2875 0.01875 0  0.29375 0.01875 0  0.3 0.01875 0  0.30625 0.01875 0  0.3125 0.01875 0  0.31875 0.01875 0  0.325 0.01875 0  0.33125 0.01875 0  0.3375 0.01875 0  0.34375 0.01875 0  0.35 0.01875 0  0.35625 0.01875 0  0.3625 0.01875 0  0.36875 0.01875 0  0.375 0.01875 0  0.38125 0.01875 0  0.3875 0.01875 0  0.39375 0.01875 0  0.4 0.01875 0  0.40625 0.01875 0  0.4125 0.01875 0  0.41875 0.01875 0  0.425 0.01875 0  0.43125 0.01875 0  0.4375 0.01875 0  0.44375 0.01875 0  0.45 0.01875 0  0.45625 0.01875 0  0.4625 0.01875 0  0.46875 0.01875 0  0.475 0.01875 0  0.48125 0.01875 0  0.4875 0.01875 0  0.49375 0.01875 0  0.5 0.01875 0  0.50625 0.01875 0  0.5125 0.01875 0  0.51875 0.01875 0  0.525 0.01875 0  0.53125 0.01875 0  0.5375 0.01875 0  0.54375 0.01875 0  0.55 0.01875 0  0.55625 0.01875 0  0.5625 0.01875 0  0.56875 0.01875 0  0.575 0.01875 0  0.58125 0.01875 0  0.5875 0.01875 0  0.59375 0.01875 0  0.6 0.01875 0  0.60625 0.01875 0  0.6125 0.01875 0  0.61875 0.01875 0  0.625 0.01875 0  0.63125 0.01875 0  0.6375 0.01875 0  0.64375 0.01875 0  0.65 0.01875 0  0.65625 0.01875 0  0.6625 0.01875 0  0.66875 0.01875 0  0.675 0.01875 0  0.68125 0.01875 0  0.6875 0.01875 0  0.69375 0.01875 0  0.7 0.01875 0  0.70625 0.01875 0  0.7125 0.01875 0  0.71875 0.01875 0  0.725 0.01
[...]
<PointData  Scalars="f_17674"> 
<DataArray  type="Float64"  Name="f_17674"  format="ascii">1.0000000000000000e+00  9.9922903624072290e-01  9.9691733373312796e-01  9.9306845695492629e-01  9.8768834059513777e-01  9.8078528040323043e-01  9.7236992039767656e-01  9.6245523645364728e-01  9.5105651629515353e-01  9.3819133592248416e-01  9.2387953251128674e-01  9.0814317382508125e-01  8.9100652418836790e-01  8.7249600707279718e-01  8.5264016435409218e-01  8.3146961230254524e-01  8.0901699437494745e-01  7.8531693088074495e-01  7.6040596560003093e-01  7.3432250943568556e-01  7.0710678118654757e-01  6.7880074553294178e-01  6.4944804833018355e-01  6.1909394930983408e-01  5.8778525229247314e-01  5.5557023301960229e-01  5.2249856471594891e-01  4.8862124149695496e-01  4.5399049973954680e-01  4.1865973753742813e-01  3.8268343236508984e-01  3.4611705707749302e-01  3.0901699437494745e-01  2.7144044986507432e-01  2.3344536385590547e-01  1.9509032201612833e-01  1.5643446504023092e-01  1.1753739745783770e-01  7.8459095727844999e-02  3.9259815759068666e-02  6.1232339957367660e-17  -3.9259815759068326e-02  -7.8459095727844874e-02  -1.1753739745783758e-01  -1.5643446504023104e-01  -1.9509032201612819e-01  -2.3344536385590511e-01  -2.7144044986507421e-01  -3.0901699437494734e-01  -3.4611705707749313e-01  -3.8268343236508973e-01  -4.1865973753742780e-01  -4.5399049973954669e-01  -4.8862124149695468e-01  -5.2249856471594880e-01  -5.5557023301960196e-01  -5.8778525229247303e-01  -6.1909394930983408e-01  -6.4944804833018355e-01  -6.7880074553294178e-01  -7.0710678118654746e-01  -7.3432250943568533e-01  -7.6040596560003093e-01  -7.8531693088074472e-01  -8.0901699437494734e-01  -8.3146961230254535e-01  -8.5264016435409218e-01  -8.7249600707279718e-01  -8.9100652418836779e-01  -9.0814317382508136e-01  -9.2387953251128674e-01  -9.3819133592248405e-01  -9.5105651629515353e-01  -9.6245523645364717e-01  -9.7236992039767656e-01  -9.8078528040323043e-01  -9.8768834059513766e-01  -9.9306845695492629e-01  -9.9691733373312796e-01  -9.9922903624072290e-01  -1.0000000000000000e+00  -9.9922903624072290e-01  -9.9691733373312807e-01  -9.9306845695492629e-01  -9.8768834059513777e-01  -9.8078528040323043e-01  -9.7236992039767667e-01  -9.6245523645364739e-01  -9.5105651629515353e-01  -9.3819133592248416e-01  -9.2387953251128685e-01  -9.0814317382508147e-01  -8.9100652418836812e-01  -8.7249600707279706e-01  -8.5264016435409229e-01  -8.3146961230254546e-01  -8.0901699437494756e-01  -7.8531693088074517e-01  -7.6040596560003071e-01  -7.3432250943568544e-01  -7.0710678118654768e-01  -6.7880074553294201e-01  -6.4944804833018410e-01  -6.1909394930983364e-01  -5.8778525229247325e-01  -5.5557023301960218e-01  -5.2249856471594935e-01  -4.8862124149695529e-01  -4.5399049973954692e-01  -4.1865973753742802e-01  -3.8268343236509034e-01  -3.4611705707749335e-01  -3.0901699437494756e-01  -2.7144044986507421e-01  -2.3344536385590514e-01  -1.9509032201612866e-01  -1.5643446504023104e-01  -1.1753739745783848e-01  -7.8459095727844680e-02  -3.9259815759069012e-02  -1.8369701987210297e-16  3.9259815759068645e-02  7.8459095727844319e-02  1.1753739745783812e-01  1.5643446504023067e-01  1.9509032201612830e-01  2.3344536385590478e-01  2.7144044986507387e-01  3.0901699437494723e-01  3.4611705707749302e-01  3.8268343236509000e-01  4.1865973753742769e-01  4.5399049973954664e-01  4.8862124149695496e-01  5.2249856471594902e-01  5.5557023301960184e-01  5.8778525229247292e-01  6.1909394930983330e-01  6.4944804833018388e-01  6.7880074553294145e-01  7.0710678118654735e-01  7.3432250943568556e-01  7.6040596560003049e-01  7.8531693088074517e-01  8.0901699437494734e-01  8.3146961230254524e-01  8.5264016435409185e-01  8.7249600707279684e-01  8.9100652418836779e-01  9.0814317382508125e-01  9.2387953251128652e-01  9.3819133592248394e-01  9.5105651629515353e-01  9.6245523645364728e-01  9.7236992039767667e-01  9.8078528040323032e-01  9.8768834059513766e-01  9.9306845695492618e-01  9.9691733373312796e-01  9.9922903624072290e-01  9.9999999999999989e-01  9.9922903624072290e-01  9.9845944848532864e-01  9.9615008498160229e-01  9.9230461385153668e-01  9.8692900234935232e-01  9.8003155952504795e-01  9.7162293328895188e-01  9.6171609769568289e-01  9.5032633458695037e-01  9.3747121087686058e-01  9.2317055194629105e-01  9.0744641136700299e-01  8.9032303708583893e-01  8.7182683416375273e-01  8.5198632415041164e-01  8.3083210117045203e-01  8.0839678479726562e-01  7.8471496979209754e-01  7.5982317278932032e-01  7.3375977601231868e-01  7.0656496810833214e-01  6.7828068219455928e-01  6.4895053121184498e-01  6.1861974068619097e-01  5.8733507900220039e-01  5.5514478529628253e-01  5.2209849508105310e-01  4.8824716371579141e-01  4.5364298784111756e-01  4.1833932489913478e-01  3.8239061086323695e-01  3.4585227630450277e-01  3.0878066092415801e-01  2.7123292668394616e-01  2.3326696966838570e-01  1.9494133081485845e-01  1.5631510564919984e-01  1.1744785316599826e-01  7.8399503994122932e-02  3.9230267989098150e-02  5.4139482747627201e-07  -3.9229186282173825e-02  -7.8398425542432301e-02  -1.1744678016322924e-01  -1.5631404032455695e-01  -1.9494027544770773e-01  -2.3326592660335091e-01  -2.7123189834659450e-01  -3.0877964983743289e-01  -3.4585128510606966e-01  -3.8238964232393274e-01  -4.1833838194272860e-01  -4.5364207356562641e-01  -4.8824628141662130e-01  -5.2209764827629090e-01  -5.5514397775451452e-01  -5.8733431477329812e-01  -6.1861902413560466e-01  -6.4894986705903668e-01  -6.7828007555637060e-01  -7.0656442454823654e-01  -7.3375930159676661e-01  -7.5982277415267674e-01  -7.8471465421208719e-01  -8.0839656028340334e-01  -8.3083197656867980e-01  -8.5198630926824215e-01  -8.7182693992172899e-01  -8.9032327570331005e-01  -9.0744679659353500e-01  -9.2317109935506825e-01  -9.3747193824450847e-01  -9.5032726239751175e-01  -9.6171724982957985e-01  -9.7162433800008119e-01  -9.8003325089237714e-01  -9.8693102256830512e-01  -9.9230701716068381e-01  -9.9615294527303211e-01  -9.9846287676119905e-01  -9.9923324987720752e-01  -9.9846287676119938e-01  -9.9615294527303200e-01  -9.9230701716068370e-01  -9.8693102256830489e-01  -9.8003325089237725e-01  -9.7162433800008086e-01  -9.6171724982957985e-01  -9.5032726239751175e-01  -9.3747193824450847e-01  -9.2317109935506869e-01  -9.0744679659353567e-01  -8.9032327570331038e-01  -8.7182693992172922e-01  -8.5198630926824270e-01  -8.3083197656867980e-01  -8.0839656028340368e-01  -7.8471465421208808e-01  -7.5982277415267652e-01  -7.3375930159676706e-01  -7.0656442454823654e-01  -6.7828007555637038e-01  -6.4894986705903701e-01  -6.1861902413560443e-01  -5.8733431477329856e-01  -5.5514397775451496e-01  -5.2209764827629168e-01  -4.8824628141662257e-01  -4.5364207356562714e-01  -4.1833838194272932e-01  -3.8238964232393335e-01  -3.4585128510607005e-01  -3.0877964983743383e-01  -2.7123189834659506e-01  -2.3326592660335141e-01  -1.9494027544770837e-01  -1.5631404032455756e-01  -1.1744678016323022e-01  -7.8398425542432357e-02  -3.9229186282174276e-02  5.4139482704792776e-07  3.9230267989097595e-02  7.8399503994122141e-02  1.1744785316599836e-01  1.5631510564919965e-01  1.9494133081485790e-01  2.3326696966838495e-01  2.7123292668394550e-01  3.0878066092415796e-01  3.4585227630450233e-01  3.8239061086323661e-01  4.1833932489913417e-01  4.5364298784111706e-01  4.8824716371579169e-01  5.2209849508105288e-01  5.5514478529628242e-01  5.8733507900220039e-01  6.1861974068619074e-01  6.4895053121184509e-01  6.7828068219455928e-01  7.0656496810833180e-01  7.3375977601231845e-01  7.5982317278931988e-01  7.8471496979209643e-01  8.0839678479726507e-01  8.3083210117045170e-01  8.5198632415041076e-01  8.7182683416375184e-01  8.9032303708583782e-01  9.0744641136700210e-01  9.2317055194629039e-01  9.3747121087686025e-01  9.5032633458694993e-01  9.6171609769568256e-01  9.7162293328895188e-01  9.8003155952504806e-01  9.8692900234935232e-01  9.9230461385153601e-01  9.9615008498160251e-01  9.9845944848532842e-01  9.9922903624072290e-01  9.9691733373312796e-01  9.9615008498160229e-01  9.9384655963370971e-01  9.9001039526544554e-01  9.8464756270185305e-01  9.7776636463169708e-01  9.6937743364000062e-01  9.5949372060260996e-01  9.4813047718672716e-01  9.3530523370661123e-01  9.2103777291184974e-01  9.0535010000042304e-01  8.8826640902973564e-01  8.6981304584566621e-01  8.5001846762557609e-01  8.2891319912075978e-01  8.0652978568012557e-01  7.8290274313672747e-01  7.5806850464049458e-01  7.3206536452326920e-01  7.0493341928557174e-01  6.7671450579812920e-01  6.4745213681492442e-01  6.1719143389828546e-01  5.8597905786024695e-01  5.5386313682805499e-01  5.2089319204519635e-01  4.8712006152273396e-01  4.5259582165895090e-01  4.1737370694839271e-01  3.8150802790428923e-01  3.4505408732105847e-01  3.0806809500613236e-01  2.7060708111267312e-01  2.3272880820690092e-01  1.9449168220568178e-01  1.5595466232175972e-01  1.1717717015553693e-01  7.8218998073618179e-02  3.9140217015421606e-02  1.0838700454339496e-06  -3.9138051433771456e-02  -7.8216838981311723e-02  -1.1717502192566177e-01  -1.5595252939812337e-01  -1.9448956913196910e-01  -2.3272671965672337e-01  -2.7060502192078878e-01  -3.0806607020114291e-01  -3.4505210215991633e-01  -3.8150608790898566e-01  -4.1737181794524397e-01  -4.5259398982095300e-01  -4.8711829341553076e-01  -5.2089149467729146e-01  -5.5386151770600667e-01  -5.8597752504971978e-01  -6.1718999609199887e-01  -6.4745080340875494e-01  -6.7671328697689515e-01  -7.0493232612036782e-01  -7.3206440908268255e-01  -7.5806770011860924e-01  -7.8290210400161209e-01  -8.0652932784755305e-01  -8.2891294015933370e-01  -8.5001842700142660e-01  -8.6981324521768577e-01  -8.8826687261037329e-01  -9.0535085500302870e-01  -9.2103885011461417e-01  -9.3530666817728192e-01  -9.4813230923513692e-01  -9.5949599706647692e-01  -9.6938020967721017e-01  -9.7776970631842708e-01  -9.8465155098646728e-01  -9.9001513236924688e-01  -9.9385218020809096e-01  -9.9615677804983915e-01  -9.9692537236956469e-01  -9.9615677804983915e-01  -9.9385218020809085e-01  -9.9001513236924676e-01  -9.8465155098646717e-01  -9.7776970631842708e-01  -9.6938020967721006e-01  -9.5949599706647648e-01  -9.4813230923513636e-01  -9.3530666817728181e-01  -9.2103885011461406e-01  -9.0535085500302903e-01  -8.8826687261037363e-01  -8.6981324521768599e-01  -8.5001842700142693e-01  -8.2891294015933392e-01  -8.0652932784755293e-01  -7.8290210400161220e-01  -7.5806770011860936e-01  -7.3206440908268278e-01  -7.0493232612036771e-01  -6.7671328697689470e-01  -6.4745080340875516e-01  -6.1718999609199821e-01  -5.8597752504972012e-01  -5.5386151770600689e-01  -5.2089149467729223e-01  -4.8711829341553198e-01  -4.5259398982095378e-01  -4.1737181794524464e-01  -3.8150608790898638e-01  -3.4505210215991716e-01  -3.0806607020114413e-01  -2.7060502192078967e-01  -2.3272671965672403e-01  -1.9448956913196999e-01  -1.5595252939812418e-01  -1.1717502192566299e-01  -7.8216838981311890e-02  -3.9138051433772039e-02  1.0838700448497814e-06  3.9140217015420815e-02  7.8218998073617124e-02  1.1717717015553683e-01  1.5595466232175931e-01  1.9449168220568119e-01  2.3272880820690001e-01  2.7060708111267223e-01  3.0806809500613219e-01  3.4505408732105819e-01  3.8150802790428867e-01  4.1737370694839199e-01  4.5259582165895040e-01  4.8712006152273413e-01  5.2089319204519635e-01  5.5386313682805444e-01  5.8597905786024673e-01  6.1719143389828512e-01  6.4745213681492453e-01  6.7671450579812875e-01  7.0493341928557107e-01  7.3206536452326854e-01  7.5806850464049402e-01  7.8290274313672770e-01  8.0652978568012501e-01  8.2891319912075867e-01  8.5001846762557498e-01  8.6981304584566510e-01  8.8826640902973431e-01  9.0535010000042160e-01  9.2103777291184852e-01  9.3530523370661001e-01  9.4813047718672638e-01  9.5949372060260918e-01  9.6937743364000006e-01  9.7776636463169653e-01  9.8464756270185272e-01  9.9001039526544554e-01  9.9384655963370949e-01  9.9615008498160240e-01  9.9691733373312796e-01  9.9306845695492629e-01  9.9230461385153645e-01  9.9001039526544576e-01  9.8618940787863474e-01  9.8084759675733413e-01  9.7399323733382515e-01  9.6563692649286781e-01  9.5579156986038805e-01  9.4447236421188241e-01  9.3169677550174856e-01  9.1748451287725519e-01  9.0185749891879241e-01  8.8483983627023155e-01  8.6645777078092090e-01  8.4673965125887052e-01  8.2571588592398626e-01  8.0341889564577551e-01  7.7988306404906671e-01  7.5514468457244499e-01  7.2924190456639404e-01  7.0221466652114894e-01  6.7410464651761548e-01  6.4495518999825818e-01  6.1481124495848272e-01  5.8371929266264566e-01  5.5172727599237725e-01  5.1888452553835551e-01  4.8524168355001251e-01  4.5085062586083713e-01  4.1576438190998571e-01  3.8003705298378199e-01  3.4372372880337654e-01  3.0688040258735666e-01  2.6956388472041443e-01  2.3183171516130102e-01  1.9374207472523047e-01  1.5535369537760552e-01  1.1672576967745518e-01  7.7917859510274273e-02  3.8989804251038061e-02  1.6284990442097581e-06  -3.8986550473120211e-02  -7.7914615413747584e-02  -1.1672254178635681e-01  -1.5535049032127538e-01  -1.9373889928171747e-01  -2.3182857630208509e-01  -2.6956078965685776e-01  -3.0687735881933387e-01  -3.4372074417057624e-01  -3.8003413572022166e-01  -4.1576154070235216e-01  -4.5084786991134529e-01  -4.8523902264457497e-01  -5.1888197012098525e-01  -5.5172483724689714e-01  -5.8371698260297522e-01  -6.1480907652900874e-01  -6.4495317718610201e-01  -6.7410280447899518e-01  -7.0221301172451722e-01  -7.2924045495567258e-01  -7.5514345975448838e-01  -7.7988208551056770e-01  -8.0341818700627787e-01  -8.2571547323358740e-01  -8.4673956335188583e-01  -8.6645803970048230e-01  -8.8484049778404550e-01  -9.0185859315391437e-01  -9.1748608511298424e-01  -9.3169887717678002e-01  -9.4447505422832945e-01  -9.5579491630954316e-01  -9.6564100899699468e-01  -9.7399815031526815e-01  -9.8085345414636960e-01  -9.8619635009911066e-01  -9.9001859980781792e-01  -9.9231430963525180e-01  -9.9307993976012887e-01  -9.9231430963525180e-01  -9.9001859980781803e-01  -9.8619635009911022e-01  -9.8085345414636971e-01  -9.7399815031526826e-01  -9.6564100899699501e-01  -9.5579491630954294e-01  -9.4447505422832878e-01  -9.3169887717677891e-01  -9.1748608511298380e-01  -9.0185859315391403e-01  -8.8484049778404505e-01  -8.6645803970048207e-01  -8.4673956335188583e-01  -8.2571547323358729e-01  -8.0341818700627776e-01  -7.7988208551056848e-01  -7.5514345975448816e-01  -7.2924045495567280e-01  -7.0221301172451711e-01  -6.7410280447899473e-01  -6.4495317718610190e-01  -6.1480907652900840e-01  -5.8371698260297511e-01  -5.5172483724689725e-01  -5.1888197012098580e-01  -4.8523902264457625e-01  -4.5084786991134607e-01  -4.1576154070235294e-01  -3.8003413572022260e-01  -3.4372074417057707e-01  -3.0687735881933531e-01  -2.6956078965685865e-01  -2.3182857630208595e-01  -1.9373889928171847e-01  -1.5535049032127635e-01  -1.1672254178635817e-01  -7.7914615413747890e-02  -3.8986550473120905e-02  1.6284990434548279e-06  3.8989804251037062e-02  7.7917859510272997e-02  1.1672576967745488e-01  1.5535369537760488e-01  1.9374207472522956e-01  2.3183171516129983e-01  2.6956388472041343e-01  3.0688040258735622e-01  3.4372372880337571e-01  3.8003705298378132e-01  4.1576438190998494e-01  4.5085062586083652e-01  4.8524168355001274e-01  5.1888452553835551e-01  5.5172727599237692e-01  5.8371929266264533e-01  6.1481124495848205e-01  6.4495518999825796e-01  6.7410464651761515e-01  7.0221466652114850e-01  7.2924190456639337e-01  7.5514468457244410e-01  7.7988306404906638e-01  8.0341889564577407e-01  8.2571588592398526e-01  8.4673965125886930e-01  8.6645777078091923e-01  8.8483983627023011e-01  9.0185749891879075e-01  9.1748451287725330e-01  9.3169677550174712e-01  9.4447236421188119e-01  9.5579156986038716e-01  9.6563692649286703e-01  9.7399323733382448e-01  9.8084759675733357e-01  9.8618940787863363e-01  9.9001039526544587e-01  9.9230461385153657e-01  9.9306845695492629e-01  9.8768834059513777e-01  9.8692900234935244e-01  9.8464756270185294e-01  9.8084759675733380e-01  9.7553501201274107e-01  9.6871803867464468e-01  9.6040721824106479e-01  9.5061538909896359e-01  9.3935766838271806e-01  9.2665142990036720e-01  9.1251627823321302e-01  8.9697401914405483e-01  8.8004862641565784e-01  8.6176620522410796e-01  8.4215495214001301e-01  8.2124511184397631e-01  7.9906893064002837e-01  7.7566060685041172e-01  7.5105623817645606e-01  7.2529376611257668e-01  6.9841291750336454e-01  6.7045514333699985e-01  6.4146355487169238e-01  6.1148285719538098e-01  5.8055928032247728e-01  5.4874050793492279e-01  5.1607560387823803e-01  4.8261493652652887e-01  4.4841010113357921e-01  4.1351384029015287e-01  3.7797996261048233e-01  3.4186325977358267e-01  3.0521942204752539e-01  2.6810495242710325e-01  2.3057707951742473e-01  1.9269366929789350e-01  1.5451313590272392e-01  1.1609435155565304e-01  7.7496555797795491e-02  3.8779264148667440e-02  2.1763412741979226e-06  -3.8774915727200848e-02  -7.7492220187131408e-02  -1.1609003738841744e-01  -1.5450885195051189e-01  -1.9268942452853455e-01  -2.3057288315396446e-01  -2.6810081400903957e-01  -3.0521535149488549e-01  -3.4185926745447737e-01  -3.7797605941284357e-01  -4.1351003769844247e-01  -4.4840641131136377e-01  -4.8261137240594149e-01  -5.1607217925750837e-01  -5.4873723758534965e-01  -5.8055618010645971e-01  -6.1147994419742557e-01  -6.4146084754468347e-01  -6.7045266166650086e-01  -6.9841068319330357e-01  -7.2529180279644823e-01  -7.5105457165914069e-01  -7.7565926538700891e-01  -7.9906794525978786e-01  -8.2124451672965204e-01  -8.4215478507601349e-01  -8.6176650813095013e-01  -8.8004944599397139e-01  -8.9697540765946404e-01  -9.1251829448491562e-01  -9.2665414043289229e-01  -9.3936114902471901e-01  -9.5061972694888186e-01  -9.6041251427232799e-01  -9.6872441120807629e-01  -9.7554260139787496e-01  -9.8085657167399010e-01  -9.8465812826966526e-01  -9.8694140945324971e-01  -9.8770289456652038e-01  -9.8694140945325015e-01  -9.8465812826966526e-01  -9.8085657167399032e-01  -9.7554260139787508e-01  -9.6872441120807651e-01  -9.6041251427232766e-01  -9.5061972694888153e-01  -9.3936114902471801e-01  -9.2665414043289096e-01  -9.1251829448491473e-01  -8.9697540765946326e-01  -8.8004944599397039e-01  -8.6176650813094913e-01  -8.4215478507601294e-01  -8.2124451672965193e-01  -7.9906794525978742e-01  -7.7565926538700947e-01  -7.5105457165914047e-01  -7.2529180279644823e-01  -6.9841068319330313e-01  -6.7045266166650019e-01  -6.4146084754468347e-01  -6.1147994419742546e-01  -5.8055618010645982e-01  -5.4873723758534987e-01  -5.1607217925750903e-01  -4.8261137240594265e-01  -4.4840641131136449e-01  -4.1351003769844347e-01  -3.7797605941284462e-01  -3.4185926745447859e-01  -3.0521535149488704e-01  -2.6810081400904068e-01  -2.3057288315396549e-01  -1.9268942452853577e-01  -1.5450885195051303e-01  -1.1609003738841889e-01  -7.7492220187131852e-02  -3.8774915727201716e-02  2.1763412732722304e-06  3.8779264148666268e-02  7.7496555797794020e-02  1.1609435155565249e-01  1.5451313590272306e-01  1.9269366929789239e-01  2.3057707951742337e-01  2.6810495242710203e-01  3.0521942204752489e-01  3.4186325977358178e-01  3.7797996261048139e-01  4.1351384029015176e-01  4.4841010113357832e-01  4.8261493652652865e-01  5.1607560387823748e-01  5.4874050793492202e-01  5.8055928032247672e-01  6.1148285719538042e-01  6.4146355487169238e-01  6.7045514333699940e-01  6.9841291750336387e-01  7.2529376611257557e-01  7.5105623817645484e-01  7.7566060685041016e-01  7.9906893064002671e-01  8.2124511184397475e-01  8.4215495214001135e-01  8.6176620522410630e-01  8.8004862641565595e-01  8.9697401914405306e-01  9.1251627823321135e-01  9.2665142990036542e-01  9.3935766838271673e-01  9.5061538909896282e-01  9.6040721824106423e-01  9.6871803867464445e-01  9.7553501201274129e-01  9.8084759675733335e-01  9.8464756270185250e-01  9.8692900234935210e-01  9.8768834059513777e-01  9.8078528040323043e-01  9.8003155952504795e-01  9.7776636463169675e-01  9.7399323733382448e-01  9.6871803867464401e-01  9.6194893926188230e-01  9.5369640692489555e-01  9.4397319142531566e-01  9