<?xml version="1.0"?>
<VTKFile type="UnstructuredGrid"  version="0.1"  >
<UnstructuredGrid>
<Piece  NumberOfPoints="25921" NumberOfCells="25600">
<Points>
<DataArray  type="Float64"  NumberOfComponents="3"  format="ascii">0 0 0  0.00625 0 0  0.0125 0 0  0.01875 0 0  0.025 0 0  0.03125 0 0  0.0375 0 0  0.04375 0 0  0.05 0 0  0.05625 0 0  0.0625 0 0  0.06875000000000001 0 0  0.075 0 0  0.08125 0 0  0.08749999999999999 0 0  0.09375 0 0  0.1 0 0  0.10625 0 0  0.1125 0 0  0.11875 0 0  0.125 0 0  0.13125 0 0  0.1375 0 0  0.14375 0 0  0.15 0 0  0.15625 0 0  0.1625 0 0  0.16875 0 0  0.175 0 0  0.18125 0 0  0.1875 0 0  0.19375 0 0  0.2 0 0  0.20625 0 0  0.2125 0 0  0.21875 0 0  0.225 0 0  0.23125 0 0  0.2375 0 0  0.24375 0 0  0.25 0 0  0.25625 0 0  0.2625 0 0  0.26875 0 0  0.275 0 0  0.28125 0 0  0.2875 0 0  0.29375 0 0  0.3 0 0  0.30625 0 0  0.3125 0 0  0.31875 0 0  0.325 0 0  0.33125 0 0  0.3375 0 0  0.34375 0 0  0.35 0 0  0.35625 0 0  0.3625 0 0  0.36875 0 0  0.375 0 0  0.38125 0 0  0.3875 0 0  0.39375 0 0  0.4 0 0  0.40625 0 0  0.4125 0 0  0.41875 0 0  0.425 0 0  0.43125 0 0  0.4375 0 0  0.44375 0 0  0.45 0 0  0.45625 0 0  0.4625 0 0  0.46875 0 0  0.475 0 0  0.48125 0 0  0.4875 0 0  0.49375 0 0  0.5 0 0  0.50625 0 0  0.5125 0 0  0.51875 0 0  0.525 0 0  0.53125 0 0  0.5375 0 0  0.54375 0 0  0.55 0 0  0.55625 0 0  0.5625 0 0  0.56875 0 0  0.575 0 0  0.58125 0 0  0.5875 0 0  0.59375 0 0  0.6 0 0  0.60625 0 0  0.6125 0 0  0.61875 0 0  0.625 0 0  0.63125 0 0  0.6375 0 0  0.64375 0 0  0.65 0 0  0.65625 0 0  0.6625 0 0  0.66875 0 0  0.675 0 0  0.68125 0 0  0.6875 0 0  0.69375 0 0  0.7 0 0  0.70625 0 0  0.7125 0 0  0.71875 0 0  0.725 0 0  0.73125 0 0  0.7375 0 0  0.74375 0 0  0.75 0 0  0.75625 0 0  0.7625 0 0  0.76875 0 0  0.775 0 0  0.78125 0 0  0.7875 0 0  0.79375 0 0  0.8 0 0  0.80625 0 0  0.8125 0 0  0.81875 0 0  0.825 0 0  0.83125 0 0  0.8375 0 0  0.84375 0 0  0.85 0 0  0.85625 0 0  0.8625 0 0  0.86875 0 0  0.875 0 0  0.88125 0 0  0.8875 0 0  0.89375 0 0  0.9 0 0  0.90625 0 0  0.9125 0 0  0.91875 0 0  0.925 0 0  0.93125 0 0  0.9375 0 0  0.94375 0 0  0.95 0 0  0.95625 0 0  0.9625 0 0  0.96875 0 0  0.975 0 0  0.98125 0 0  0.9875 0 0  0.99375 0 0  1 0 0  0 0.00625 0  0.00625 0.00625 0  0.0125 0.00625 0  0.01875 0.00625 0  0.025 0.00625 0  0.03125 0.00625 0  0.0375 0.00625 0  0.04375 0.00625 0  0.05 0.00625 0  0.05625 0.00625 0  0.0625 0.00625 0  0.06875000000000001 0.00625 0  0.075 0.00625 0  0.08125 0.00625 0  0.08749999999999999 0.00625 0  0.09375 0.00625 0  0.1 0.00625 0  0.10625 0.00625 0  0.1125 0.00625 0  0.11875 0.00625 0  0.125 0.00625 0  0.13125 0.00625 0  0.1375 0.00625 0  0.14375 0.00625 0  0.15 0.00625 0  0.15625 0.00625 0  0.1625 0.00625 0  0.16875 0.00625 0  0.175 0.00625 0  0.18125 0.00625 0  0.1875 0.00625 0  0.19375 0.00625 0  0.2 0.00625 0  0.20625 0.00625 0  0.2125 0.00625 0  0.21875 0.00625 0  0.225 0.00625 0  0.23125 0.00625 0  0.2375 0.00625 0  0.24375 0.00625 0  0.25 0.00625 0  0.25625 0.00625 0  0.2625 0.00625 0  0.26875 0.00625 0  0.275 0.00625 0  0.28125 0.00625 0  0.2875 0.00625 0  0.29375 0.00625 0  0.3 0.00625 0  0.30625 0.00625 0  0.3125 0.00625 0  0.31875 0.00625 0  0.325 0.00625 0  0.33125 0.00625 0  0.3375 0.00625 0  0.34375 0.00625 0  0.35 0.00625 0  0.35625 0.00625 0  0.3625 0.00625 0  0.36875 0.00625 0  0.375 0.00625 0  0.38125 0.00625 0  0.3875 0.00625 0  0.39375 0.00625 0  0.4 0.00625 0  0.40625 0.00625 0  0.4125 0.00625 0  0.41875 0.00625 0  0.425 0.00625 0  0.43125 0.00625 0  0.4375 0.00625 0  0.44375 0.00625 0  0.45 0.00625 0  0.45625 0.00625 0  0.4625 0.00625 0  0.46875 0.00625 0  0.475 0.00625 0  0.48125 0.00625 0  0.4875 0.00625 0  0.49375 0.00625 0  0.5 0.00625 0  0.50625 0.00625 0  0.5125 0.00625 0  0.51875 0.00625 0  0.525 0.00625 0  0.53125 0.00625 0  0.5375 0.00625 0  0.54375 0.00625 0  0.55 0.00625 0  0.55625 0.00625 0  0.5625 0.00625 0  0.56875 0.00625 0  0.575 0.00625 0  0.58125 0.00625 0  0.5875 0.00625 0  0.59375 0.00625 0  0.6 0.00625 0  0.60625 0.00625 0  0.6125 0.00625 0  0.61875 0.00625 0  0.625 0.00625 0  0.63125 0.00625 0  0.6375 0.00625 0  0.64375 0.00625 0  0.65 0.00625 0  0.65625 0.00625 0  0.6625 0.00625 0  0.66875 0.00625 0  0.675 0.00625 0  0.68125 0.00625 0  0.6875 0.00625 0  0.69375 0.00625 0  0.7 0.00625 0  0.70625 0.00625 0  0.7125 0.00625 0  0.71875 0.00625 0  0.725 0.00625 0  0.73125 0.00625 0  0.7375 0.00625 0  0.74375 0.00625 0  0.75 0.00625 0  0.75625 0.00625 0  0.7625 0.00625 0  0.76875 0.00625 0  0.775 0.00625 0  0.78125 0.00625 0  0.7875 0.00625 0  0.79375 0.00625 0  0.8 0.00625 0  0.80625 0.00625 0  0.8125 0.00625 0  0.81875 0.00625 0  0.825 0.00625 0  0.83125 0.00625 0  0.8375 0.00625 0  0.84375 0.00625 0  0.85 0.00625 0  0.85625 0.00625 0  0.8625 0.00625 0  0.86875 0.00625 0  0.875 0.00625 0  0.88125 0.00625 0  0.8875 0.00625 0  0.89375 0.00625 0  0.9 0.00625 0  0.90625 0.00625 0  0.9125 0.00625 0  0.91875 0.00625 0  0.925 0.00625 0  0.93125 0.00625 0  0.9375 0.00625 0  0.94375 0.00625 0  0.95 0.00625 0  0.95625 0.00625 0  0.9625 0.00625 0  0.96875 0.00625 0  0.975 0.00625 0  0.98125 0.00625 0  0.9875 0.00625 0  0.99375 0.00625 0  1 0.00625 0  0 0.0125 0  0.00625 0.0125 0  0.0125 0.0125 0  0.01875 0.0125 0  0.025 0.0125 0  0.03125 0.0125 0  0.0375 0.0125 0  0.04375 0.0125 0  0.05 0.0125 0  0.05625 0.0125 0  0.0625 0.0125 0  0.06875000000000001 0.0125 0  0.075 0.0125 0  0.08125 0.0125 0  0.08749999999999999 0.0125 0  0.09375 0.0125 0  0.1 0.0125 0  0.10625 0.0125 0  0.1125 0.0125 0  0.11875 0.0125 0  0.125 0.0125 0  0.13125 0.0125 0  0.1375 0.0125 0  0.14375 0.0125 0  0.15 0.0125 0  0.15625 0.0125 0  0.1625 0.0125 0  0.16875 0.0125 0  0.175 0.0125 0  0.18125 0.0125 0  0.1875 0.0125 0  0.19375 0.0125 0  0.2 0.0125 0  0.20625 0.0125 0  0.2125 0.0125 0  0.21875 0.0125 0  0.225 0.0125 0  0.23125 0.0125 0  0.2375 0.0125 0  0.24375 0.0125 0  0.25 0.0125 0  0.25625 0.0125 0  0.2625 0.0125 0  0.26875 0.0125 0  0.275 0.0125 0  0.28125 0.0125 0  0.2875 0.0125 0  0.29375 0.0125 0  0.3 0.0125 0  0.30625 0.0125 0  0.3125 0.0125 0  0.31875 0.0125 0  0.325 0.0125 0  0.33125 0.0125 0  0.3375 0.0125 0  0.34375 0.0125 0  0.35 0.0125 0  0.35625 0.0125 0  0.3625 0.0125 0  0.36875 0.0125 0  0.375 0.0125 0  0.38125 0.0125 0  0.3875 0.0125 0  0.39375 0.0125 0  0.4 0.0125 0  0.40625 0.0125 0  0.4125 0.0125 0  0.41875 0.0125 0  0.425 0.0125 0  0.43125 0.0125 0  0.4375 0.0125 0  0.44375 0.0125 0  0.45 0.0125 0  0.45625 0.0125 0  0.4625 0.0125 0  0.46875 0.0125 0  0.475 0.0125 0  0.48125 0.0125 0  0.4875 0.0125 0  0.49375 0.0125 0  0.5 0.0125 0  0.50625 0.0125 0  0.5125 0.0125 0  0.51875 0.0125 0  0.525 0.0125 0  0.53125 0.0125 0  0.5375 0.0125 0  0.54375 0.0125 0  0.55 0.0125 0  0.55625 0.0125 0  0.5625 0.0125 0  0.56875 0.0125 0  0.575 0.0125 0  0.58125 0.0125 0  0.5875 0.0125 0  0.59375 0.0125 0  0.6 0.0125 0  0.60625 0.0125 0  0.6125 0.0125 0  0.61875 0.0125 0  0.625 0.0125 0  0.63125 0.0125 0  0.6375 0.0125 0  0.64375 0.0125 0  0.65 0.0125 0  0.65625 0.0125 0  0.6625 0.0125 0  0.66875 0.0125 0  0.675 0.0125 0  0.68125 0.0125 0  0.6875 0.0125 0  0.69375 0.0125 0  0.7 0.0125 0  0.70625 0.0125 0  0.7125 0.0125 0  0.71875 0.0125 0  0.725 0.0125 0  0.73125 0.0125 0  0.7375 0.0125 0  0.74375 0.0125 0  0.75 0.0125 0  0.75625 0.0125 0  0.7625 0.0125 0  0.76875 0.0125 0  0.775 0.0125 0  0.78125 0.0125 0  0.7875 0.0125 0  0.79375 0.0125 0  0.8 0.0125 0  0.80625 0.0125 0  0.8125 0.0125 0  0.81875 0.0125 0  0.825 0.0125 0  0.83125 0.0125 0  0.8375 0.0125 0  0.84375 0.0125 0  0.85 0.0125 0  0.85625 0.0125 0  0.8625 0.0125 0  0.86875 0.0125 0  0.875 0.0125 0  0.88125 0.0125 0  0.8875 0.0125 0  0.89375 0.0125 0  0.9 0.0125 0  0.90625 0.0125 0  0.9125 0.0125 0  0.91875 0.0125 0  0.925 0.0125 0  0.93125 0.0125 0  0.9375 0.0125 0  0.94375 0.0125 0  0.95 0.0125 0  0.95625 0.0125 0  0.9625 0.0125 0  0.96875 0.0125 0  0.975 0.0125 0  0.98125 0.0125 0  0.9875 0.0125 0  0.99375 0.0125 0  1 0.0125 0  0 0.01875 0  0.00625 0.01875 0  0.0125 0.01875 0  0.01875 0.01875 0  0.025 0.01875 0  0.03125 0.01875 0  0.0375 0.01875 0  0.04375 0.01875 0  0.05 0.01875 0  0.05625 0.01875 0  0.0625 0.01875 0  0.06875000000000001 0.01875 0  0.075 0.01875 0  0.08125 0.01875 0  0.08749999999999999 0.01875 0  0.09375 0.01875 0  0.1 0.01875 0  0.10625 0.01875 0  0.1125 0.01875 0  0.11875 0.01875 0  0.125 0.01875 0  0.13125 0.01875 0  0.1375 0.01875 0  0.14375 0.01875 0  0.15 0.01875 0  0.15625 0.01875 0  0.1625 0.01875 0  0.16875 0.01875 0  0.175 0.01875 0  0.18125 0.01875 0  0.1875 0.01875 0  0.19375 0.01875 0  0.2 0.01875 0  0.20625 0.01875 0  0.2125 0.01875 0  0.21875 0.01875 0  0.225 0.01875 0  0.23125 0.01875 0  0.2375 0.01875 0  0.24375 0.01875 0  0.25 0.01875 0  0.25625 0.01875 0  0.2625 0.01875 0  0.26875 0.01875 0  0.275 0.01875 0  0.28125 0.01875 0  0.2875 0.01875 0  0.29375 0.01875 0  0.3 0.01875 0  0.30625 0.01875 0  0.3125 0.01875 0  0.31875 0.01875 0  0.325 0.01875 0  0.33125 0.01875 0  0.3375 0.01875 0  0.34375 0.01875 0  0.35 0.01875 0  0.35625 0.01875 0  0.3625 0.01875 0  0.36875 0.01875 0  0.375 0.01875 0  0.38125 0.01875 0  0.3875 0.01875 0  0.39375 0.01875 0  0.4 0.01875 0  0.40625 0.01875 0  0.4125 0.01875 0  0.41875 0.01875 0  0.425 0.01875 0  0.43125 0.01875 0  0.4375 0.01875 0  0.44375 0.01875 0  0.45 0.01875 0  0.45625 0.01875 0  0.4625 0.01875 0  0.46875 0.01875 0  0.475 0.01875 0  0.48125 0.01875 0  0.4875 0.01875 0  0.49375 0.01875 0  0.5 0.01875 0  0.50625 0.01875 0  0.5125 0.01875 0  0.51875 0.01875 0  0.525 0.01875 0  0.53125 0.01875 0  0.5375 0.01875 0  0.54375 0.01875 0  0.55 0.01875 0  0.55625 0.01875 0  0.5625 0.01875 0  0.56875 0.01875 0  0.575 0.01875 0  0.58125 0.01875 0  0.5875 0.01875 0  0.59375 0.01875 0  0.6 0.01875 0  0.60625 0.01875 0  0.6125 0.01875 0  0.61875 0.01875 0  0.625 0.01875 0  0.63125 0.01875 0  0.6375 0.01875 0  0.64375 0.01875 0  0.65 0.01875 0  0.65625 0.01875 0  0.6625 0.01875 0  0.66875 0.01875 0  0.675 0.01875 0  0.68125 0.01875 0  0.6875 0.01875 0  0.69375 0.01875 0  0.7 0.01875 0  0.70625 0.01875 0  0.7125 0.01875 0  0.71875 0.01875 0  0.725 0.01
[...]
<PointData  Scalars="f_17782"> 
<DataArray  type="Float64"  Name="f_17782"  format="ascii">1.0000000000000000e+00  9.9922903624072290e-01  9.9691733373312785e-01  9.9306845695492618e-01  9.8768834059513788e-01  9.8078528040323032e-01  9.7236992039767656e-01  9.6245523645364739e-01  9.5105651629515342e-01  9.3819133592248427e-01  9.2387953251128674e-01  9.0814317382508136e-01  8.9100652418836790e-01  8.7249600707279718e-01  8.5264016435409218e-01  8.3146961230254524e-01  8.0901699437494745e-01  7.8531693088074495e-01  7.6040596560003093e-01  7.3432250943568556e-01  7.0710678118654757e-01  6.7880074553294178e-01  6.4944804833018355e-01  6.1909394930983408e-01  5.8778525229247314e-01  5.5557023301960229e-01  5.2249856471594891e-01  4.8862124149695496e-01  4.5399049973954680e-01  4.1865973753742808e-01  3.8268343236508984e-01  3.4611705707749302e-01  3.0901699437494745e-01  2.7144044986507432e-01  2.3344536385590547e-01  1.9509032201612830e-01  1.5643446504023092e-01  1.1753739745783771e-01  7.8459095727844999e-02  3.9259815759068666e-02  6.1232339957367660e-17  -3.9259815759068326e-02  -7.8459095727844874e-02  -1.1753739745783758e-01  -1.5643446504023104e-01  -1.9509032201612819e-01  -2.3344536385590514e-01  -2.7144044986507421e-01  -3.0901699437494734e-01  -3.4611705707749313e-01  -3.8268343236508973e-01  -4.1865973753742780e-01  -4.5399049973954669e-01  -4.8862124149695468e-01  -5.2249856471594880e-01  -5.5557023301960196e-01  -5.8778525229247303e-01  -6.1909394930983408e-01  -6.4944804833018355e-01  -6.7880074553294178e-01  -7.0710678118654746e-01  -7.3432250943568533e-01  -7.6040596560003093e-01  -7.8531693088074461e-01  -8.0901699437494723e-01  -8.3146961230254524e-01  -8.5264016435409218e-01  -8.7249600707279718e-01  -8.9100652418836779e-01  -9.0814317382508125e-01  -9.2387953251128685e-01  -9.3819133592248405e-01  -9.5105651629515353e-01  -9.6245523645364717e-01  -9.7236992039767656e-01  -9.8078528040323054e-01  -9.8768834059513766e-01  -9.9306845695492629e-01  -9.9691733373312796e-01  -9.9922903624072290e-01  -9.9999999999999989e-01  -9.9922903624072290e-01  -9.9691733373312807e-01  -9.9306845695492640e-01  -9.8768834059513777e-01  -9.8078528040323032e-01  -9.7236992039767667e-01  -9.6245523645364739e-01  -9.5105651629515353e-01  -9.3819133592248416e-01  -9.2387953251128696e-01  -9.0814317382508136e-01  -8.9100652418836823e-01  -8.7249600707279695e-01  -8.5264016435409229e-01  -8.3146961230254546e-01  -8.0901699437494756e-01  -7.8531693088074506e-01  -7.6040596560003071e-01  -7.3432250943568544e-01  -7.0710678118654768e-01  -6.7880074553294201e-01  -6.4944804833018410e-01  -6.1909394930983364e-01  -5.8778525229247325e-01  -5.5557023301960218e-01  -5.2249856471594935e-01  -4.8862124149695524e-01  -4.5399049973954692e-01  -4.1865973753742802e-01  -3.8268343236509034e-01  -3.4611705707749335e-01  -3.0901699437494756e-01  -2.7144044986507421e-01  -2.3344536385590511e-01  -1.9509032201612866e-01  -1.5643446504023104e-01  -1.1753739745783848e-01  -7.8459095727844680e-02  -3.9259815759069012e-02  -1.8369701987210297e-16  3.9259815759068645e-02  7.8459095727844319e-02  1.1753739745783812e-01  1.5643446504023067e-01  1.9509032201612830e-01  2.3344536385590475e-01  2.7144044986507387e-01  3.0901699437494723e-01  3.4611705707749302e-01  3.8268343236508995e-01  4.1865973753742775e-01  4.5399049973954664e-01  4.8862124149695496e-01  5.2249856471594902e-01  5.5557023301960184e-01  5.8778525229247292e-01  6.1909394930983330e-01  6.4944804833018388e-01  6.7880074553294145e-01  7.0710678118654735e-01  7.3432250943568556e-01  7.6040596560003038e-01  7.8531693088074517e-01  8.0901699437494734e-01  8.3146961230254524e-01  8.5264016435409185e-01  8.7249600707279695e-01  8.9100652418836779e-01  9.0814317382508125e-01  9.2387953251128652e-01  9.3819133592248383e-01  9.5105651629515342e-01  9.6245523645364728e-01  9.7236992039767667e-01  9.8078528040323032e-01  9.8768834059513766e-01  9.9306845695492629e-01  9.9691733373312785e-01  9.9922903624072290e-01  1.0000000000000000e+00  9.9922903624072290e-01  9.9845866759048396e-01  9.9614874737602022e-01  9.9230283794991880e-01  9.8692686946741304e-01  9.8002913128502667e-01  9.7162025921534179e-01  9.6171321912971619e-01  9.5032328696598167e-01  9.3746802517405570e-01  9.2316725563591973e-01  9.0744302910171737e-01  8.9031959118909521e-01  8.7182334499822178e-01  8.5198281040012203e-01  8.3082858006110349e-01  8.0839327227108559e-01  7.8471148064855745e-01  7.5981972079973092e-01  7.3375637401411864e-01  7.0656162808336920e-01  6.7827741533460750e-01  6.4894734797382314e-01  6.1861665083901174e-01  5.8733209166675160e-01  5.5514190897974514e-01  5.2209573770651319e-01  4.8824453264793172e-01  4.5364048990862299e-01  4.1833696641434648e-01  3.8238839763948501e-01  3.4585021367149082e-01  3.0877875374170627e-01  2.7123117935435437e-01  2.3326538614764164e-01  1.9493991462288079e-01  1.5631385987928098e-01  1.1744678049358723e-01  7.8398606685073299e-02  3.9229547907485743e-02  1.0432296660198446e-11  -3.9229547886641888e-02  -7.8398606664292395e-02  -1.1744678047291154e-01  -1.5631385985875373e-01  -1.9493991460254567e-01  -2.3326538612754366e-01  -2.7123117933454144e-01  -3.0877875372222524e-01  -3.4585021365239349e-01  -3.8238839762082455e-01  -4.1833696639617890e-01  -4.5364048989100858e-01  -4.8824453263093354e-01  -5.2209573769020023e-01  -5.5514190896418947e-01  -5.8733209165203126e-01  -6.1861665082521122e-01  -6.4894734796103282e-01  -6.7827741532292674e-01  -7.0656162807290412e-01  -7.3375637400498694e-01  -7.5981972079206028e-01  -7.8471148064248797e-01  -8.0839327226677071e-01  -8.3082858005871452e-01  -8.5198281039984725e-01  -8.7182334500027259e-01  -8.9031959119370552e-01  -9.0744302910915120e-01  -9.2316725564647550e-01  -9.3746802518807126e-01  -9.5032328698384760e-01  -9.6171321915188190e-01  -9.7162025924232898e-01  -9.8002913131744740e-01  -9.8692686950598318e-01  -9.9230283799560881e-01  -9.9614874743257065e-01  -9.9845866770327429e-01  -9.9922903707808808e-01  -9.9845866770327307e-01  -9.9614874743256920e-01  -9.9230283799560703e-01  -9.8692686950598107e-01  -9.8002913131744462e-01  -9.7162025924232709e-01  -9.6171321915187913e-01  -9.5032328698384505e-01  -9.3746802518806926e-01  -9.2316725564647317e-01  -9.0744302910914931e-01  -8.9031959119370341e-01  -8.7182334500026970e-01  -8.5198281039984525e-01  -8.3082858005871363e-01  -8.0839327226677016e-01  -7.8471148064248708e-01  -7.5981972079205928e-01  -7.3375637400498672e-01  -7.0656162807290379e-01  -6.7827741532292540e-01  -6.4894734796103193e-01  -6.1861665082520945e-01  -5.8733209165202993e-01  -5.5514190896418825e-01  -5.2209573769019968e-01  -4.8824453263093354e-01  -4.5364048989100747e-01  -4.1833696639617823e-01  -3.8238839762082366e-01  -3.4585021365239316e-01  -3.0877875372222446e-01  -2.7123117933453900e-01  -2.3326538612754222e-01  -1.9493991460254437e-01  -1.5631385985875249e-01  -1.1744678047291078e-01  -7.8398606664290660e-02  -3.9229547886640695e-02  1.0433859882305085e-11  3.9229547907487436e-02  7.8398606685074951e-02  1.1744678049358986e-01  1.5631385987928365e-01  1.9493991462288324e-01  2.3326538614764417e-01  2.7123117935435698e-01  3.0877875374170916e-01  3.4585021367149388e-01  3.8238839763948812e-01  4.1833696641434936e-01  4.5364048990862610e-01  4.8824453264793488e-01  5.2209573770651663e-01  5.5514190897974891e-01  5.8733209166675471e-01  6.1861665083901418e-01  6.4894734797382625e-01  6.7827741533461072e-01  7.0656162808337331e-01  7.3375637401412197e-01  7.5981972079973370e-01  7.8471148064856089e-01  8.0839327227108859e-01  8.3082858006110605e-01  8.5198281040012369e-01  8.7182334499822300e-01  8.9031959118909676e-01  9.0744302910171992e-01  9.2316725563592217e-01  9.3746802517405692e-01  9.5032328696598245e-01  9.6171321912971697e-01  9.7162025921534279e-01  9.8002913128502778e-01  9.8692686946741337e-01  9.9230283794991736e-01  9.9614874737601844e-01  9.9845866759048418e-01  9.9922903624072290e-01  9.9691733373312785e-01  9.9614874737602033e-01  9.9384417115534474e-01  9.9000715919704452e-01  9.8464362794942850e-01  9.7776184759366425e-01  9.6937242933690138e-01  9.5948830905428217e-01  9.4812472734306474e-01  9.3529920602275851e-01  9.2103152111775710e-01  9.0534367236414948e-01  8.8825984928772650e-01  8.6980639390548808e-01  8.5001176010816559e-01  8.2890646978638594e-01  8.0652306576813482e-01  7.8289606164006720e-01  7.5806188853006873e-01  7.3205883893309087e-01  7.0492700766690319e-01  6.7670823004879088e-01  6.4744601738852681e-01  6.1718548989708644e-01  5.8597330711455375e-01  5.5385759596449380e-01  5.2088787654572233e-01  4.8711498577590417e-01  4.5259099900471184e-01  4.1736914971740935e-01  3.8150374745267845e-01  3.4505009406124554e-01  3.0806439843443600e-01  2.7060368983413718e-01  2.3272572995781224e-01  1.9448892387414857e-01  1.5595222996667460e-01  1.1717506902420612e-01  7.8217232618297577e-02  3.9138790908971030e-02  2.0885435297588332e-11  -3.9138790867241709e-02  -7.8217232576693552e-02  -1.1717506898281176e-01  -1.5595222992557589e-01  -1.9448892383343300e-01  -2.3272572991756968e-01  -2.7060368979446109e-01  -3.0806439839542282e-01  -3.4505009402299730e-01  -3.8150374741530130e-01  -4.1736914968101463e-01  -4.5259099896941934e-01  -4.8711498574184076e-01  -5.2088787651302371e-01  -5.5385759593330475e-01  -5.8597330708502926e-01  -6.1718548986939403e-01  -6.4744601736284801e-01  -6.7670823002532188e-01  -7.0492700764585681e-01  -7.3205883891469992e-01  -7.5806188851458778e-01  -7.8289606162777459e-01  -8.0652306575933619e-01  -8.2890646978142124e-01  -8.5001176010740842e-01  -8.6980639390935532e-01  -8.8825984929668445e-01  -9.0534367237871993e-01  -9.2103152113852971e-01  -9.3529920605040295e-01  -9.4812472737834974e-01  -9.5948830909809146e-01  -9.6937242939026702e-01  -9.7776184765780005e-01  -9.8464362802579919e-01  -9.9000715928773897e-01  -9.9384417126716917e-01  -9.9614874756972982e-01  -9.9691733470580257e-01  -9.9614874756972926e-01  -9.9384417126716718e-01  -9.9000715928773664e-01  -9.8464362802579597e-01  -9.7776184765779628e-01  -9.6937242939026325e-01  -9.5948830909808680e-01  -9.4812472737834519e-01  -9.3529920605039885e-01  -9.2103152113852638e-01  -9.0534367237871582e-01  -8.8825984929668067e-01  -8.6980639390935166e-01  -8.5001176010740465e-01  -8.2890646978141880e-01  -8.0652306575933486e-01  -7.8289606162777392e-01  -7.5806188851458656e-01  -7.3205883891469914e-01  -7.0492700764585647e-01  -6.7670823002532032e-01  -6.4744601736284635e-01  -6.1718548986939170e-01  -5.8597330708502726e-01  -5.5385759593330253e-01  -5.2088787651302260e-01  -4.8711498574183976e-01  -4.5259099896941746e-01  -4.1736914968101285e-01  -3.8150374741529874e-01  -3.4505009402299486e-01  -3.0806439839542066e-01  -2.7060368979445792e-01  -2.3272572991756704e-01  -1.9448892383343008e-01  -1.5595222992557320e-01  -1.1717506898280965e-01  -7.8217232576690443e-02  -3.9138790867238905e-02  2.0888746295882335e-11  3.9138790908974735e-02  7.8217232618301366e-02  1.1717506902421093e-01  1.5595222996667960e-01  1.9448892387415345e-01  2.3272572995781748e-01  2.7060368983414251e-01  3.0806439843444189e-01  3.4505009406125192e-01  3.8150374745268478e-01  4.1736914971741568e-01  4.5259099900471783e-01  4.8711498577591078e-01  5.2088787654572877e-01  5.5385759596450068e-01  5.8597330711456030e-01  6.1718548989709221e-01  6.4744601738853269e-01  6.7670823004879810e-01  7.0492700766691130e-01  7.3205883893309787e-01  7.5806188853007472e-01  7.8289606164007353e-01  8.0652306576814081e-01  8.2890646978639249e-01  8.5001176010816992e-01  8.6980639390549153e-01  8.8825984928773094e-01  9.0534367236415514e-01  9.2103152111776221e-01  9.3529920602276251e-01  9.4812472734306696e-01  9.5948830905428428e-01  9.6937242933690382e-01  9.7776184759366636e-01  9.8464362794942972e-01  9.9000715919704363e-01  9.9384417115534263e-01  9.9614874737601944e-01  9.9691733373312796e-01  9.9306845695492618e-01  9.9230283794991936e-01  9.9000715919704485e-01  9.8618496109905351e-01  9.8084213726265668e-01  9.7398692594020997e-01  9.6562989737158644e-01  9.5578393748951618e-01  9.4446422805077901e-01  9.3168822322709011e-01  9.1747562269205230e-01  9.0184834124569502e-01  8.8483047502345413e-01  8.6644826434167554e-01  8.4673005323695505e-01  8.2570624576169560e-01  8.0340925910325844e-01  7.7987347359901704e-01  7.5513517972436761e-01  7.2923252213544554e-01  7.0220544085283487e-01  6.7409560967695148e-01  6.4494637193006232e-01  6.1480267362402563e-01  5.8371099415679872e-01  5.5171927464457593e-01  5.1887684400006395e-01  4.8523434287087014e-01  4.5084364555529777e-01  4.1575778001593777e-01  3.8003084611439431e-01  3.4371793219321828e-01  3.0687503013367801e-01  2.6955894902033406e-01  2.3182722754555118e-01  1.9373804528900440e-01  1.5535013300898412e-01  1.1672268208382347e-01  7.7915253243083987e-02  3.8987684729226466e-02  3.1380218296255243e-11  -3.8987684666528064e-02  -7.7915253180572477e-02  -1.1672268202162477e-01  -1.5535013294722635e-01  -1.9373804522781804e-01  -2.3182722748507051e-01  -2.6955894896069826e-01  -3.0687503007503125e-01  -3.4371793213571233e-01  -3.8003084605818727e-01  -4.1575777996119684e-01  -4.5084364550220085e-01  -4.8523434281960631e-01  -5.1887684395083478e-01  -5.5171927459759751e-01  -5.8371099411230176e-01  -6.1480267358226093e-01  -6.4494637189129889e-01  -6.7409560964148096e-01  -7.0220544082097447e-01  -7.2923252210754175e-01  -7.5513517970079747e-01  -7.7987347358019465e-01  -8.0340925908963878e-01  -8.2570624575378027e-01  -8.4673005323530004e-01  -8.6644826434689659e-01  -8.8483047503623924e-01  -9.0184834126681424e-01  -9.1747562272237371e-01  -9.3168822326759970e-01  -9.4446422810260144e-01  -9.5578393755394575e-01  -9.6562989745012728e-01  -9.7398692603463488e-01  -9.8084213737512027e-01  -9.8618496123257415e-01  -9.9000715935986194e-01  -9.9230283820451060e-01  -9.9306845799613475e-01  -9.9230283820450993e-01  -9.9000715935986083e-01  -9.8618496123257149e-01  -9.8084213737511750e-01  -9.7398692603463044e-01  -9.6562989745012240e-01  -9.5578393755394098e-01  -9.4446422810259623e-01  -9.3168822326759515e-01  -9.1747562272236949e-01  -9.0184834126681002e-01  -8.8483047503623447e-01  -8.6644826434689104e-01  -8.4673005323529438e-01  -8.2570624575377627e-01  -8.0340925908963712e-01  -7.7987347358019399e-01  -7.5513517970079602e-01  -7.2923252210754030e-01  -7.0220544082097358e-01  -6.7409560964147919e-01  -6.4494637189129633e-01  -6.1480267358225804e-01  -5.8371099411229965e-01  -5.5171927459759529e-01  -5.1887684395083289e-01  -4.8523434281960420e-01  -4.5084364550219796e-01  -4.1575777996119423e-01  -3.8003084605818377e-01  -3.4371793213570939e-01  -3.0687503007502781e-01  -2.6955894896069393e-01  -2.3182722748506648e-01  -1.9373804522781382e-01  -1.5535013294722225e-01  -1.1672268202162117e-01  -7.7915253180567884e-02  -3.8987684666523643e-02  3.1385213545560921e-11  3.8987684729231968e-02  7.7915253243089705e-02  1.1672268208383041e-01  1.5535013300899148e-01  1.9373804528901173e-01  2.3182722754555879e-01  2.6955894902034172e-01  3.0687503013368661e-01  3.4371793219322760e-01  3.8003084611440341e-01  4.1575778001594682e-01  4.5084364555530620e-01  4.8523434287087919e-01  5.1887684400007306e-01  5.5171927464458548e-01  5.8371099415680805e-01  6.1480267362403451e-01  6.4494637193007220e-01  6.7409560967696169e-01  7.0220544085284542e-01  7.2923252213545520e-01  7.5513517972437627e-01  7.7987347359902615e-01  8.0340925910326666e-01  8.2570624576170348e-01  8.4673005323696227e-01  8.6644826434168121e-01  8.8483047502346079e-01  9.0184834124570301e-01  9.1747562269205951e-01  9.3168822322709588e-01  9.4446422805078434e-01  9.5578393748952151e-01  9.6562989737159166e-01  9.7398692594021419e-01  9.8084213726265979e-01  9.8618496109905385e-01  9.9000715919704363e-01  9.9230283794991869e-01  9.9306845695492629e-01  9.8768834059513777e-01  9.8692686946741259e-01  9.8464362794942895e-01  9.8084213726265712e-01  9.7552825908389873e-01  9.6871018703338474e-01  9.6039843408500725e-01  9.5060581635984964e-01  9.3934743336502113e-01  9.2664064471136243e-01  9.1250504334620608e-01  8.9696242534248460e-01  8.8003675629077649e-01  8.6175413434610371e-01  8.4214274998647598e-01  8.2123284254522178e-01  7.9905665358412614e-01  7.7564837717928814e-01  7.5104410719633097e-01  7.2528178163627932e-01  6.9840112413791289e-01  6.7044358272679683e-01  6.4145226590543103e-01  6.1147187618306187e-01  5.8054864114765736e-01  5.4873024218631505e-01  5.1606574096402091e-01  4.8260550377411759e-01  4.4840112387713138e-01  4.1350534194770322e-01  3.7797196475229350e-01  3.4185578218304669e-01  3.0521248277574942e-01  2.6809856784214470e-01  2.3057126434900474e-01  1.9268843667829685e-01  1.5450849740450009e-01  1.1609031722664898e-01  7.7493134193983390e-02  3.8776462365169698e-02  4.1937103027626793e-11  -3.8776462281377613e-02  -7.7493134110438608e-02  -1.1609031714351795e-01  -1.5450849732195240e-01  -1.9268843659650511e-01  -2.3057126426814659e-01  -2.6809856776240421e-01  -3.0521248269731793e-01  -3.4185578210612394e-01  -3.7797196467708938e-01  -4.1350534187443871e-01  -4.4840112380604136e-01  -4.8260550370545208e-01  -5.1606574089804580e-01  -5.4873024212331534e-01  -5.8054864108793880e-01  -6.1147187612695442e-01  -6.4145226585328974e-01  -6.7044358267900783e-01  -6.9840112409489308e-01  -7.2528178159848489e-01  -7.5104410716425918e-01  -7.7564837715348312e-01  -7.9905665356518463e-01  -8.2123284253380291e-01  -8.4214274998330829e-01  -8.6175413435199288e-01  -8.8003675630662059e-01  -8.9696242536928805e-01  -9.1250504338509675e-01  -9.2664064476361829e-01  -9.3934743343209370e-01  -9.5060581644340214e-01  -9.6039843418696313e-01  -9.6871018715599999e-01  -9.7552825922988107e-01  -9.8084213743565318e-01  -9.8464362815828022e-01  -9.8692686977460453e-01  -9.8768834169154640e-01  -9.8692686977460353e-01  -9.8464362815827788e-01  -9.8084213743565030e-01  -9.7552825922987718e-01  -9.6871018715599522e-01  -9.6039843418695847e-01  -9.5060581644339670e-01  -9.3934743343208826e-01  -9.2664064476361330e-01  -9.1250504338509231e-01  -8.9696242536928350e-01  -8.8003675630661504e-01  -8.6175413435198667e-01  -8.4214274998330241e-01  -8.2123284253379836e-01  -7.9905665356518163e-01  -7.7564837715348045e-01  -7.5104410716425640e-01  -7.2528178159848267e-01  -6.9840112409489152e-01  -6.7044358267900561e-01  -6.4145226585328763e-01  -6.1147187612695098e-01  -5.8054864108793569e-01  -5.4873024212331212e-01  -5.1606574089804291e-01  -4.8260550370544902e-01  -4.4840112380603769e-01  -4.1350534187443505e-01  -3.7797196467708510e-01  -3.4185578210611994e-01  -3.0521248269731349e-01  -2.6809856776239893e-01  -2.3057126426814159e-01  -1.9268843659649992e-01  -1.5450849732194716e-01  -1.1609031714351299e-01  -7.7493134110432557e-02  -3.8776462281371722e-02  4.1943728073533409e-11  3.8776462365176997e-02  7.7493134193991037e-02  1.1609031722665783e-01  1.5450849740450959e-01  1.9268843667830649e-01  2.3057126434901490e-01  2.6809856784215502e-01  3.0521248277576091e-01  3.4185578218305851e-01  3.7797196475230516e-01  4.1350534194771488e-01  4.4840112387714259e-01  4.8260550377412914e-01  5.1606574096403235e-01  5.4873024218632682e-01  5.8054864114766869e-01  6.1147187618307275e-01  6.4145226590544291e-01  6.7044358272680959e-01  6.9840112413792610e-01  7.2528178163629176e-01  7.5104410719634274e-01  7.7564837717930046e-01  7.9905665358413813e-01  8.2123284254523266e-01  8.4214274998648564e-01  8.6175413434611170e-01  8.8003675629078437e-01  8.9696242534249437e-01  9.1250504334621518e-01  9.2664064471136975e-01  9.3934743336502724e-01  9.5060581635985586e-01  9.6039843408501302e-01  9.6871018703339029e-01  9.7552825908390295e-01  9.8084213726265912e-01  9.8464362794942961e-01  9.8692686946741393e-01  9.8768834059513777e-01  9.8078528040323054e-01  9.8002913128502622e-01  9.7776184759366402e-01  9.7398692594021041e-01  9.6871018703338585e-01  9.6193976722725039e-01  9.5368610601939086e-01  9.4396192995766925e-01  9