<?xml version="1.0"?>
<VTKFile type="UnstructuredGrid"  version="0.1"  >
<UnstructuredGrid>
<Piece  NumberOfPoints="6561" NumberOfCells="6400">
<Points>
<DataArray  type="Float64"  NumberOfComponents="3"  format="ascii">0 0 0  0.0125 0 0  0.025 0 0  0.0375 0 0  0.05 0 0  0.0625 0 0  0.075 0 0  0.08749999999999999 0 0  0.1 0 0  0.1125 0 0  0.125 0 0  0.1375 0 0  0.15 0 0  0.1625 0 0  0.175 0 0  0.1875 0 0  0.2 0 0  0.2125 0 0  0.225 0 0  0.2375 0 0  0.25 0 0  0.2625 0 0  0.275 0 0  0.2875 0 0  0.3 0 0  0.3125 0 0  0.325 0 0  0.3375 0 0  0.35 0 0  0.3625 0 0  0.375 0 0  0.3875 0 0  0.4 0 0  0.4125 0 0  0.425 0 0  0.4375 0 0  0.45 0 0  0.4625 0 0  0.475 0 0  0.4875 0 0  0.5 0 0  0.5125 0 0  0.525 0 0  0.5375 0 0  0.55 0 0  0.5625 0 0  0.575 0 0  0.5875 0 0  0.6 0 0  0.6125 0 0  0.625 0 0  0.6375 0 0  0.65 0 0  0.6625 0 0  0.675 0 0  0.6875 0 0  0.7 0 0  0.7125 0 0  0.725 0 0  0.7375 0 0  0.75 0 0  0.7625 0 0  0.775 0 0  0.7875 0 0  0.8 0 0  0.8125 0 0  0.825 0 0  0.8375 0 0  0.85 0 0  0.8625 0 0  0.875 0 0  0.8875 0 0  0.9 0 0  0.9125 0 0  0.925 0 0  0.9375 0 0  0.95 0 0  0.9625 0 0  0.975 0 0  0.9875 0 0  1 0 0  0 0.0125 0  0.0125 0.0125 0  0.025 0.0125 0  0.0375 0.0125 0  0.05 0.0125 0  0.0625 0.0125 0  0.075 0.0125 0  0.08749999999999999 0.0125 0  0.1 0.0125 0  0.1125 0.0125 0  0.125 0.0125 0  0.1375 0.0125 0  0.15 0.0125 0  0.1625 0.0125 0  0.175 0.0125 0  0.1875 0.0125 0  0.2 0.0125 0  0.2125 0.0125 0  0.225 0.0125 0  0.2375 0.0125 0  0.25 0.0125 0  0.2625 0.0125 0  0.275 0.0125 0  0.2875 0.0125 0  0.3 0.0125 0  0.3125 0.0125 0  0.325 0.0125 0  0.3375 0.0125 0  0.35 0.0125 0  0.3625 0.0125 0  0.375 0.0125 0  0.3875 0.0125 0  0.4 0.0125 0  0.4125 0.0125 0  0.425 0.0125 0  0.4375 0.0125 0  0.45 0.0125 0  0.4625 0.0125 0  0.475 0.0125 0  0.4875 0.0125 0  0.5 0.0125 0  0.5125 0.0125 0  0.525 0.0125 0  0.5375 0.0125 0  0.55 0.0125 0  0.5625 0.0125 0  0.575 0.0125 0  0.5875 0.0125 0  0.6 0.0125 0  0.6125 0.0125 0  0.625 0.0125 0  0.6375 0.0125 0  0.65 0.0125 0  0.6625 0.0125 0  0.675 0.0125 0  0.6875 0.0125 0  0.7 0.0125 0  0.7125 0.0125 0  0.725 0.0125 0  0.7375 0.0125 0  0.75 0.0125 0  0.7625 0.0125 0  0.775 0.0125 0  0.7875 0.0125 0  0.8 0.0125 0  0.8125 0.0125 0  0.825 0.0125 0  0.8375 0.0125 0  0.85 0.0125 0  0.8625 0.0125 0  0.875 0.0125 0  0.8875 0.0125 0  0.9 0.0125 0  0.9125 0.0125 0  0.925 0.0125 0  0.9375 0.0125 0  0.95 0.0125 0  0.9625 0.0125 0  0.975 0.0125 0  0.9875 0.0125 0  1 0.0125 0  0 0.025 0  0.0125 0.025 0  0.025 0.025 0  0.0375 0.025 0  0.05 0.025 0  0.0625 0.025 0  0.075 0.025 0  0.08749999999999999 0.025 0  0.1 0.025 0  0.1125 0.025 0  0.125 0.025 0  0.1375 0.025 0  0.15 0.025 0  0.1625 0.025 0  0.175 0.025 0  0.1875 0.025 0  0.2 0.025 0  0.2125 0.025 0  0.225 0.025 0  0.2375 0.025 0  0.25 0.025 0  0.2625 0.025 0  0.275 0.025 0  0.2875 0.025 0  0.3 0.025 0  0.3125 0.025 0  0.325 0.025 0  0.3375 0.025 0  0.35 0.025 0  0.3625 0.025 0  0.375 0.025 0  0.3875 0.025 0  0.4 0.025 0  0.4125 0.025 0  0.425 0.025 0  0.4375 0.025 0  0.45 0.025 0  0.4625 0.025 0  0.475 0.025 0  0.4875 0.025 0  0.5 0.025 0  0.5125 0.025 0  0.525 0.025 0  0.5375 0.025 0  0.55 0.025 0  0.5625 0.025 0  0.575 0.025 0  0.5875 0.025 0  0.6 0.025 0  0.6125 0.025 0  0.625 0.025 0  0.6375 0.025 0  0.65 0.025 0  0.6625 0.025 0  0.675 0.025 0  0.6875 0.025 0  0.7 0.025 0  0.7125 0.025 0  0.725 0.025 0  0.7375 0.025 0  0.75 0.025 0  0.7625 0.025 0  0.775 0.025 0  0.7875 0.025 0  0.8 0.025 0  0.8125 0.025 0  0.825 0.025 0  0.8375 0.025 0  0.85 0.025 0  0.8625 0.025 0  0.875 0.025 0  0.8875 0.025 0  0.9 0.025 0  0.9125 0.025 0  0.925 0.025 0  0.9375 0.025 0  0.95 0.025 0  0.9625 0.025 0  0.975 0.025 0  0.9875 0.025 0  1 0.025 0  0 0.0375 0  0.0125 0.0375 0  0.025 0.0375 0  0.0375 0.0375 0  0.05 0.0375 0  0.0625 0.0375 0  0.075 0.0375 0  0.08749999999999999 0.0375 0  0.1 0.0375 0  0.1125 0.0375 0  0.125 0.0375 0  0.1375 0.0375 0  0.15 0.0375 0  0.1625 0.0375 0  0.175 0.0375 0  0.1875 0.0375 0  0.2 0.0375 0  0.2125 0.0375 0  0.225 0.0375 0  0.2375 0.0375 0  0.25 0.0375 0  0.2625 0.0375 0  0.275 0.0375 0  0.2875 0.0375 0  0.3 0.0375 0  0.3125 0.0375 0  0.325 0.0375 0  0.3375 0.0375 0  0.35 0.0375 0  0.3625 0.0375 0  0.375 0.0375 0  0.3875 0.0375 0  0.4 0.0375 0  0.4125 0.0375 0  0.425 0.0375 0  0.4375 0.0375 0  0.45 0.0375 0  0.4625 0.0375 0  0.475 0.0375 0  0.4875 0.0375 0  0.5 0.0375 0  0.5125 0.0375 0  0.525 0.0375 0  0.5375 0.0375 0  0.55 0.0375 0  0.5625 0.0375 0  0.575 0.0375 0  0.5875 0.0375 0  0.6 0.0375 0  0.6125 0.0375 0  0.625 0.0375 0  0.6375 0.0375 0  0.65 0.0375 0  0.6625 0.0375 0  0.675 0.0375 0  0.6875 0.0375 0  0.7 0.0375 0  0.7125 0.0375 0  0.725 0.0375 0  0.7375 0.0375 0  0.75 0.0375 0  0.7625 0.0375 0  0.775 0.0375 0  0.7875 0.0375 0  0.8 0.0375 0  0.8125 0.0375 0  0.825 0.0375 0  0.8375 0.0375 0  0.85 0.0375 0  0.8625 0.0375 0  0.875 0.0375 0  0.8875 0.0375 0  0.9 0.0375 0  0.9125 0.0375 0  0.925 0.0375 0  0.9375 0.0375 0  0.95 0.0375 0  0.9625 0.0375 0  0.975 0.0375 0  0.9875 0.0375 0  1 0.0375 0  0 0.05 0  0.0125 0.05 0  0.025 0.05 0  0.0375 0.05 0  0.05 0.05 0  0.0625 0.05 0  0.075 0.05 0  0.08749999999999999 0.05 0  0.1 0.05 0  0.1125 0.05 0  0.125 0.05 0  0.1375 0.05 0  0.15 0.05 0  0.1625 0.05 0  0.175 0.05 0  0.1875 0.05 0  0.2 0.05 0  0.2125 0.05 0  0.225 0.05 0  0.2375 0.05 0  0.25 0.05 0  0.2625 0.05 0  0.275 0.05 0  0.2875 0.05 0  0.3 0.05 0  0.3125 0.05 0  0.325 0.05 0  0.3375 0.05 0  0.35 0.05 0  0.3625 0.05 0  0.375 0.05 0  0.3875 0.05 0  0.4 0.05 0  0.4125 0.05 0  0.425 0.05 0  0.4375 0.05 0  0.45 0.05 0  0.4625 0.05 0  0.475 0.05 0  0.4875 0.05 0  0.5 0.05 0  0.5125 0.05 0  0.525 0.05 0  0.5375 0.05 0  0.55 0.05 0  0.5625 0.05 0  0.575 0.05 0  0.5875 0.05 0  0.6 0.05 0  0.6125 0.05 0  0.625 0.05 0  0.6375 0.05 0  0.65 0.05 0  0.6625 0.05 0  0.675 0.05 0  0.6875 0.05 0  0.7 0.05 0  0.7125 0.05 0  0.725 0.05 0  0.7375 0.05 0  0.75 0.05 0  0.7625 0.05 0  0.775 0.05 0  0.7875 0.05 0  0.8 0.05 0  0.8125 0.05 0  0.825 0.05 0  0.8375 0.05 0  0.85 0.05 0  0.8625 0.05 0  0.875 0.05 0  0.8875 0.05 0  0.9 0.05 0  0.9125 0.05 0  0.925 0.05 0  0.9375 0.05 0  0.95 0.05 0  0.9625 0.05 0  0.975 0.05 0  0.9875 0.05 0  1 0.05 0  0 0.0625 0  0.0125 0.0625 0  0.025 0.0625 0  0.0375 0.0625 0  0.05 0.0625 0  0.0625 0.0625 0  0.075 0.0625 0  0.08749999999999999 0.0625 0  0.1 0.0625 0  0.1125 0.0625 0  0.125 0.0625 0  0.1375 0.0625 0  0.15 0.0625 0  0.1625 0.0625 0  0.175 0.0625 0  0.1875 0.0625 0  0.2 0.0625 0  0.2125 0.0625 0  0.225 0.0625 0  0.2375 0.0625 0  0.25 0.0625 0  0.2625 0.0625 0  0.275 0.0625 0  0.2875 0.0625 0  0.3 0.0625 0  0.3125 0.0625 0  0.325 0.0625 0  0.3375 0.0625 0  0.35 0.0625 0  0.3625 0.0625 0  0.375 0.0625 0  0.3875 0.0625 0  0.4 0.0625 0  0.4125 0.0625 0  0.425 0.0625 0  0.4375 0.0625 0  0.45 0.0625 0  0.4625 0.0625 0  0.475 0.0625 0  0.4875 0.0625 0  0.5 0.0625 0  0.5125 0.0625 0  0.525 0.0625 0  0.5375 0.0625 0  0.55 0.0625 0  0.5625 0.0625 0  0.575 0.0625 0  0.5875 0.0625 0  0.6 0.0625 0  0.6125 0.0625 0  0.625 0.0625 0  0.6375 0.0625 0  0.65 0.0625 0  0.6625 0.0625 0  0.675 0.0625 0  0.6875 0.0625 0  0.7 0.0625 0  0.7125 0.0625 0  0.725 0.0625 0  0.7375 0.0625 0  0.75 0.0625 0  0.7625 0.0625 0  0.775 0.0625 0  0.7875 0.0625 0  0.8 0.0625 0  0.8125 0.0625 0  0.825 0.0625 0  0.8375 0.0625 0  0.85 0.0625 0  0.8625 0.0625 0  0.875 0.0625 0  0.8875 0.0625 0  0.9 0.0625 0  0.9125 0.0625 0  0.925 0.0625 0  0.9375 0.0625 0  0.95 0.0625 0  0.9625 0.0625 0  0.975 0.0625 0  0.9875 0.0625 0  1 0.0625 0  0 0.075 0  0.0125 0.075 0  0.025 0.075 0  0.0375 0.075 0  0.05 0.075 0  0.0625 0.075 0  0.075 0.075 0  0.08749999999999999 0.075 0  0.1 0.075 0  0.1125 0.075 0  0.125 0.075 0  0.1375 0.075 0  0.15 0.075 0  0.1625 0.075 0  0.175 0.075 0  0.1875 0.075 0  0.2 0.075 0  0.2125 0.075 0  0.225 0.075 0  0.2375 0.075 0  0.25 0.075 0  0.2625 0.075 0  0.275 0.075 0  0.2875 0.075 0  0.3 0.075 0  0.3125 0.075 0  0.325 0.075 0  0.3375 0.075 0  0.35 0.075 0  0.3625 0.075 0  0.375 0.075 0  0.3875 0.075 0  0.4 0.075 0  0.4125 0.075 0  0.425 0.075 0  0.4375 0.075 0  0.45 0.075 0  0.4625 0.075 0  0.475 0.075 0  0.4875 0.075 0  0.5 0.075 0  0.5125 0.075 0  0.525 0.075 0  0.5375 0.075 0  0.55 0.075 0  0.5625 0.075 0  0.575 0.075 0  0.5875 0.075 0  0.6 0.075 0  0.6125 0.075 0  0.625 0.075 0  0.6375 0.075 0  0.65 0.075 0  0.6625 0.075 0  0.675 0.075 0  0.6875 0.075 0  0.7 0.075 0  0.7125 0.075 0  0.725 0.075 0  0.7375 0.075 0  0.75 0.075 0  0.7625 0.075 0  0.775 0.075 0  0.7875 0.075 0  0.8 0.075 0  0.8125 0.075 0  0.825 0.075 0  0.8375 0.075 0  0.85 0.075 0  0.8625 0.075 0  0.875 0.075 0  0.8875 0.075 0  0.9 0.075 0  0.9125 0.075 0  0.925 0.075 0  0.9375 0.075 0  0.95 0.075 0  0.9625 0.075 0  0.975 0.075 0  0.9875 0.075 0  1 0.075 0  0 0.08749999999999999 0  0.0125 0.08749999999999999 0  0.025 0.08749999999999999 0  0.0375 0.08749999999999999 0  0.05 0.08749999999999999 0  0.0625 0.08749999999999999 0  0.075 0.08749999999999999 0  0.08749999999999999 0.08749999999999999 0  0.1 0.08749999999999999 0  0.1125 0.08749999999999999 0  0.125 0.08749999999999999 0  0.1375 0.08749999999999999 0  0.15 0.08749999999999999 0  0.1625 0.08749999999999999 0  0.175 0.08749999999999999 0  0.1875 0.08749999999999999 0  0.2 0.08749999999999999 0  0.2125 0.08749999999999999 0  0.225 0.08749999999999999 0  0.2375 0.08749999999999999 0  0.25 0.08749999999999999 0  0.2625 0.08749999999999999 0  0.275 0.08749999999999999 0  0.2875 0.08749999999999999 0  0.3 0.08749999999999999 0  0.3125 0.08749999999999999 0  0.325 0.08749999999999999 0  0.3375 0.08749999999999999 0  0.35 0.08749999999999999 0  0.3625 0.08749999999999999 0  0.375 0.08749999999999999 0  0.3875 0.08749999999999999 0  0.4 0.08749999999999999 0  0.4125 0.08749999999999999 0  0.425 0.08749999999999999 0  0.4375 0.08749999999999999 0  0.45 0.08749999999999999 0  0.4625 0.08749999999999999 0  0.475 0.08749999999999999 0  0.4875 0.08749999999999999 0  0.5 0.08749999999999999 0  0.5125 0.08749999999999999 0  0.525 0.08749999999999999 0  0.5375 0.08749999999999999 0  0.55 0.08749999999999999 0
[...]
<PointData  Scalars="f_17638"> 
<DataArray  type="Float64"  Name="f_17638"  format="ascii">1.0000000000000000e+00  9.9691733373312796e-01  9.8768834059513777e-01  9.7236992039767656e-01  9.5105651629515353e-01  9.2387953251128674e-01  8.9100652418836790e-01  8.5264016435409218e-01  8.0901699437494745e-01  7.6040596560003093e-01  7.0710678118654757e-01  6.4944804833018355e-01  5.8778525229247314e-01  5.2249856471594891e-01  4.5399049973954680e-01  3.8268343236508984e-01  3.0901699437494745e-01  2.3344536385590547e-01  1.5643446504023092e-01  7.8459095727844999e-02  6.1232339957367660e-17  -7.8459095727844874e-02  -1.5643446504023104e-01  -2.3344536385590511e-01  -3.0901699437494734e-01  -3.8268343236508973e-01  -4.5399049973954669e-01  -5.2249856471594880e-01  -5.8778525229247303e-01  -6.4944804833018355e-01  -7.0710678118654746e-01  -7.6040596560003093e-01  -8.0901699437494734e-01  -8.5264016435409218e-01  -8.9100652418836779e-01  -9.2387953251128674e-01  -9.5105651629515353e-01  -9.7236992039767656e-01  -9.8768834059513766e-01  -9.9691733373312796e-01  -1.0000000000000000e+00  -9.9691733373312807e-01  -9.8768834059513777e-01  -9.7236992039767667e-01  -9.5105651629515353e-01  -9.2387953251128685e-01  -8.9100652418836812e-01  -8.5264016435409229e-01  -8.0901699437494756e-01  -7.6040596560003071e-01  -7.0710678118654768e-01  -6.4944804833018410e-01  -5.8778525229247325e-01  -5.2249856471594935e-01  -4.5399049973954692e-01  -3.8268343236509034e-01  -3.0901699437494756e-01  -2.3344536385590514e-01  -1.5643446504023104e-01  -7.8459095727844680e-02  -1.8369701987210297e-16  7.8459095727844319e-02  1.5643446504023067e-01  2.3344536385590478e-01  3.0901699437494723e-01  3.8268343236509000e-01  4.5399049973954664e-01  5.2249856471594902e-01  5.8778525229247292e-01  6.4944804833018388e-01  7.0710678118654735e-01  7.6040596560003049e-01  8.0901699437494734e-01  8.5264016435409185e-01  8.9100652418836779e-01  9.2387953251128652e-01  9.5105651629515353e-01  9.7236992039767667e-01  9.8768834059513766e-01  9.9691733373312796e-01  1.0000000000000000e+00  9.9691733373312796e-01  9.9385388901268179e-01  9.8465947958910438e-01  9.6939253339234632e-01  9.4814779785991743e-01  9.2105658897396014e-01  8.8828614133187600e-01  8.5003863733183838e-01  8.0654998769224961e-01  7.5808839104662740e-01  7.0495268846872450e-01  6.4747052598663635e-01  5.8599633777729543e-01  5.2090916317317892e-01  4.5261031132322832e-01  3.8152088812894086e-01  3.0807920083880230e-01  2.3273805638888284e-01  1.5596197020291008e-01  7.8224302698877160e-02  4.3411832279617740e-06  -7.8215654857335351e-02  -1.5595342683592225e-01  -2.3272969017722062e-01  -3.0807108912312120e-01  -3.8151311500903368e-01  -4.5260297001428507e-01  -5.2090235872712476e-01  -5.8599019031066824e-01  -6.4746517460782993e-01  -7.0494829617764898e-01  -7.5808515100833063e-01  -8.0654813149924298e-01  -8.5003844623980396e-01  -8.8828796213187267e-01  -9.2106085749774136e-01  -9.4815507598125981e-01  -9.6940357227789875e-01  -9.8467534201309481e-01  -9.9387622941907583e-01  -9.9694950783039404e-01  -9.9387622941907650e-01  -9.8467534201309515e-01  -9.6940357227789908e-01  -9.4815507598125959e-01  -9.2106085749774103e-01  -8.8828796213187222e-01  -8.5003844623980362e-01  -8.0654813149924254e-01  -7.5808515100832963e-01  -7.0494829617764887e-01  -6.4746517460782949e-01  -5.8599019031066790e-01  -5.2090235872712476e-01  -4.5260297001428501e-01  -3.8151311500903368e-01  -3.0807108912312181e-01  -2.3272969017722051e-01  -1.5595342683592248e-01  -7.8215654857334949e-02  4.3411832277087593e-06  7.8224302698876272e-02  1.5596197020290997e-01  2.3273805638888204e-01  3.0807920083880236e-01  3.8152088812894019e-01  4.5261031132322771e-01  5.2090916317317870e-01  5.8599633777729476e-01  6.4747052598663613e-01  7.0495268846872372e-01  7.5808839104662629e-01  8.0654998769224895e-01  8.5003863733183749e-01  8.8828614133187533e-01  9.2105658897395948e-01  9.4814779785991687e-01  9.6939253339234688e-01  9.8465947958910460e-01  9.9385388901268212e-01  9.9691733373312796e-01  9.8768834059513777e-01  9.8465947958910438e-01  9.7555541998124451e-01  9.6043370726078392e-01  9.3938849418633341e-01  9.1255008982723995e-01  8.8008433222799776e-01  8.4219164436356719e-01  7.9910583922079104e-01  7.5109270112992554e-01  6.9844836089705176e-01  6.4149747885109565e-01  5.8059124908134729e-01  5.1610523829051347e-01  4.4843707322781295e-01  3.7800399134359153e-01  3.0524027000600579e-01  2.3059455028438156e-01  1.5452707190228163e-01  7.7506836478456076e-02  8.7165948720185955e-06  -7.7489471449046429e-02  -1.5450991312254519e-01  -2.3057774121082822e-01  -3.0522396324866868e-01  -3.7798835278060267e-01  -4.4842228661350991e-01  -5.1609151056222113e-01  -5.8057881663108080e-01  -6.4148661512149796e-01  -6.9843938580416653e-01  -7.5108599304090862e-01  -7.9910185058039795e-01  -8.4219092267925511e-01  -8.8008754920944032e-01  -9.1255808349833600e-01  -9.3940233280270569e-01  -9.6045479253472210e-01  -9.7558566663001911e-01  -9.8470166776636925e-01  -9.8774659249899566e-01  -9.8470166776636969e-01  -9.7558566663001944e-01  -9.6045479253472188e-01  -9.3940233280270569e-01  -9.1255808349833567e-01  -8.8008754920943999e-01  -8.4219092267925466e-01  -7.9910185058039729e-01  -7.5108599304090740e-01  -6.9843938580416576e-01  -6.4148661512149752e-01  -5.8057881663108024e-01  -5.1609151056222069e-01  -4.4842228661350958e-01  -3.7798835278060294e-01  -3.0522396324866918e-01  -2.3057774121082808e-01  -1.5450991312254542e-01  -7.7489471449045971e-02  8.7165948717687936e-06  7.7506836478455160e-02  1.5452707190228152e-01  2.3059455028438086e-01  3.0524027000600584e-01  3.7800399134359114e-01  4.4843707322781218e-01  5.1610523829051280e-01  5.8059124908134652e-01  6.4149747885109509e-01  6.9844836089705087e-01  7.5109270112992366e-01  7.9910583922079015e-01  8.4219164436356653e-01  8.8008433222799698e-01  9.1255008982723895e-01  9.3938849418633286e-01  9.6043370726078436e-01  9.7555541998124518e-01  9.8465947958910471e-01  9.8768834059513777e-01  9.7236992039767656e-01  9.6939253339234699e-01  9.6043370726078392e-01  9.4554983998827857e-01  9.2483359023742906e-01  8.9841332866625845e-01  8.6645241109759141e-01  8.2914823164186202e-01  7.8673104425015417e-01  7.3946256773363339e-01  6.8763438824599421e-01  6.3156617238105905e-01  5.7160370384166903e-01  5.0811675694203295e-01  4.4149682076362978e-01  3.7215468844381278e-01  3.0051792675075439e-01  2.2702824173959257e-01  1.5213875686394571e-01  7.6311220416803008e-02  1.3159583934694010e-05  -7.6285001295940999e-02  -1.5211284046186624e-01  -2.2700283854779618e-01  -3.0049326058760917e-01  -3.7213100242384911e-01  -4.4147438395899874e-01  -5.0809587201838935e-01  -5.7158471602979877e-01  -6.3154948026381919e-01  -6.8762045701798291e-01  -7.3945194586259511e-01  -7.8672438489272678e-01  -8.2914632084384965e-01  -8.6645620592252870e-01  -8.9842401027234631e-01  -9.2485264013223811e-01  -9.4557915294265171e-01  -9.6047576190707307e-01  -9.6945062381474112e-01  -9.7244840526682985e-01  -9.6945062381474190e-01  -9.6047576190707329e-01  -9.4557915294265171e-01  -9.2485264013223778e-01  -8.9842401027234597e-01  -8.6645620592252826e-01  -8.2914632084384932e-01  -7.8672438489272567e-01  -7.3945194586259355e-01  -6.8762045701798202e-01  -6.3154948026381841e-01  -5.7158471602979788e-01  -5.0809587201838857e-01  -4.4147438395899846e-01  -3.7213100242384894e-01  -3.0049326058760950e-01  -2.2700283854779602e-01  -1.5211284046186641e-01  -7.6285001295940583e-02  1.3159583934465022e-05  7.6311220416802064e-02  1.5213875686394548e-01  2.2702824173959180e-01  3.0051792675075445e-01  3.7215468844381228e-01  4.4149682076362901e-01  5.0811675694203229e-01  5.7160370384166814e-01  6.3156617238105806e-01  6.8763438824599321e-01  7.3946256773363228e-01  7.8673104425015294e-01  8.2914823164186069e-01  8.6645241109759041e-01  8.9841332866625767e-01  9.2483359023742850e-01  9.4554983998827891e-01  9.6043370726078447e-01  9.6939253339234710e-01  9.7236992039767656e-01  9.5105651629515353e-01  9.4814779785991743e-01  9.3938849418633341e-01  9.2483359023742884e-01  9.0457363988033723e-01  8.7873420225993892e-01  8.4747509110246921e-01  8.1098942141731889e-01  7.6950244718956340e-01  7.2327019382239432e-01  6.7257789500675491e-01  6.1773824525457321e-01  5.5908948013834259e-01  4.9699329696847283e-01  4.3183262934086808e-01  3.6400928969347762e-01  2.9394149469399883e-01  2.2206128891622481e-01  1.4881188283105215e-01  7.4644921626520935e-02  1.7701770148757019e-05  -7.4609647470335785e-02  -1.4877700012947837e-01  -2.2202706975270495e-01  -2.9390822820057472e-01  -3.6397728965089798e-01  -4.3180224261956812e-01  -4.9696491314449748e-01  -5.5906354270383218e-01  -6.1771526496713813e-01  -6.7255846610341441e-01  -7.2325501408885817e-01  -7.6949234326586469e-01  -8.1098538129790654e-01  -8.4747830663723744e-01  -8.7874612566778143e-01  -9.0459605979777125e-01  -9.2486873394875890e-01  -9.3943915911237186e-01  -9.4821750291611684e-01  -9.5114964344673314e-01  -9.4821750291611706e-01  -9.3943915911237197e-01  -9.2486873394875868e-01  -9.0459605979777069e-01  -8.7874612566778032e-01  -8.4747830663723644e-01  -8.1098538129790565e-01  -7.6949234326586347e-01  -7.2325501408885684e-01  -6.7255846610341319e-01  -6.1771526496713725e-01  -5.5906354270383118e-01  -4.9696491314449659e-01  -4.3180224261956746e-01  -3.6397728965089771e-01  -2.9390822820057494e-01  -2.2202706975270475e-01  -1.4877700012947853e-01  -7.4609647470335355e-02  1.7701770148538440e-05  7.4644921626520061e-02  1.4881188283105201e-01  2.2206128891622412e-01  2.9394149469399877e-01  3.6400928969347707e-01  4.3183262934086730e-01  4.9699329696847261e-01  5.5908948013834181e-01  6.1773824525457255e-01  6.7257789500675391e-01  7.2327019382239277e-01  7.6950244718956229e-01  8.1098942141731778e-01  8.4747509110246821e-01  8.7873420225993826e-01  9.0457363988033690e-01  9.2483359023742850e-01  9.3938849418633319e-01  9.4814779785991721e-01  9.5105651629515353e-01  9.2387953251128674e-01  9.2105658897396003e-01  9.1255008982723962e-01  8.9841332866625812e-01  8.7873420225993881e-01  8.5363465882533340e-01  8.2326995317980056e-01  7.8782770554526227e-01  7.4752676268977403e-01  7.0261586462069758e-01  6.5337212395311328e-01  6.0009932753721063e-01  5.4312607134404955e-01  4.8280374062972059e-01  4.1950434825701371e-01  3.5361824482838788e-01  2.8555171499169646e-01  2.1572447491887428e-01  1.4456708652055864e-01  7.2518304438995526e-02  2.2372251271868989e-05  -7.2473715390059160e-02  -1.4452296775524001e-01  -2.1568115315498085e-01  -2.8550953716476946e-01  -3.5357758705281916e-01  -4.1946562572133700e-01  -4.8276741878536050e-01  -5.4309267882823520e-01  -6.0006947138546773e-01  -6.5334650781616244e-01  -7.0259531091992644e-01  -7.4751223994272520e-01  -7.8782036248291754e-01  -8.2327116175332837e-01  -8.5364606867085369e-01  -8.7875780932558867e-01  -8.9845155952011579e-01  -9.1260589925942792e-01  -9.2113356130563817e-01  -9.2398196918156283e-01  -9.2113356130563762e-01  -9.1260589925942770e-01  -8.9845155952011568e-01  -8.7875780932558811e-01  -8.5364606867085269e-01  -8.2327116175332704e-01  -7.8782036248291620e-01  -7.4751223994272387e-01  -7.0259531091992500e-01  -6.5334650781616110e-01  -6.0006947138546651e-01  -5.4309267882823442e-01  -4.8276741878535956e-01  -4.1946562572133628e-01  -3.5357758705281861e-01  -2.8550953716476957e-01  -2.1568115315498057e-01  -1.4452296775524012e-01  -7.2473715390058688e-02  2.2372251271674802e-05  7.2518304438994666e-02  1.4456708652055852e-01  2.1572447491887348e-01  2.8555171499169629e-01  3.5361824482838711e-01  4.1950434825701277e-01  4.8280374062972020e-01  5.4312607134404911e-01  6.0009932753721007e-01  6.5337212395311217e-01  7.0261586462069614e-01  7.4752676268977281e-01  7.8782770554526127e-01  8.2326995317980001e-01  8.5363465882533252e-01  8.7873420225993826e-01  8.9841332866625812e-01  9.1255008982723962e-01  9.2105658897396014e-01  9.2387953251128674e-01  8.9100652418836790e-01  8.8828614133187600e-01  8.8008433222799753e-01  8.6645241109759086e-01  8.4747509110246866e-01  8.2326995317980023e-01  7.9398672206042342e-01  7.5980635084950721e-01  7.2093991615688602e-01  6.7762732786719759e-01  6.3013586008556111e-01  5.7875851184412097e-01  5.2381220768949588e-01  4.6563584943752617e-01  4.0458823133725513e-01  3.4104583171073805e-01  2.7540049486285256e-01  2.0805701769698204e-01  1.3943065602965074e-01  6.9944566067639116e-02  2.7196891431100125e-05  -6.9890349924165568e-02  -1.3937697723041459e-01  -2.0800424935124986e-01  -2.7534903284743906e-01  -3.4099610469545283e-01  -4.0454071178331136e-01  -4.6559106592912741e-01  -5.2377075902823345e-01  -5.7872108342929018e-01  -6.3010324322576305e-01  -6.7760044282304333e-01  -7.2091983989924646e-01  -7.5979435071467283e-01  -7.9398429663600512e-01  -8.2327888172089914e-01  -8.4749749225072768e-01  -8.6649081019744711e-01  -8.8014173375810090e-01  -8.8836609928031840e-01  -8.9111320012696360e-01  -8.8836609928031784e-01  -8.8014173375810034e-01  -8.6649081019744678e-01  -8.4749749225072701e-01  -8.2327888172089814e-01  -7.9398429663600378e-01  -7.5979435071467094e-01  -7.2091983989924491e-01  -6.7760044282304177e-01  -6.3010324322576183e-01  -5.7872108342928918e-01  -5.2377075902823234e-01  -4.6559106592912658e-01  -4.0454071178331041e-01  -3.4099610469545238e-01  -2.7534903284743911e-01  -2.0800424935124961e-01  -1.3937697723041464e-01  -6.9890349924165110e-02  2.7196891430906259e-05  6.9944566067638270e-02  1.3943065602965052e-01  2.0805701769698137e-01  2.7540049486285240e-01  3.4104583171073732e-01  4.0458823133725424e-01  4.6563584943752551e-01  5.2381220768949521e-01  5.7875851184412053e-01  6.3013586008556033e-01  6.7762732786719626e-01  7.2093991615688524e-01  7.5980635084950598e-01  7.9398672206042298e-01  8.2326995317979978e-01  8.4747509110246799e-01  8.6645241109759075e-01  8.8008433222799731e-01  8.8828614133187567e-01  8.9100652418836790e-01  8.5264016435409218e-01  8.5003863733183838e-01  8.4219164436356742e-01  8.2914823164186169e-01  8.1098942141731845e-01  7.8782770554526160e-01  7.5980635084950665e-01  7.2709851940145875e-01  6.8990620730730157e-01  6.4845900685861146e-01  6.0301269851934181e-01  5.5384768081355118e-01  5.0126724755970598e-01  4.4559572305161910e-01  3.8717646675920814e-01  3.2636975996027945e-01  2.6355058744517262e-01  1.9910632807268031e-01  1.3343436850313153e-01  6.6939654893578546e-02  3.2197709421369302e-05  -6.6875454915232946e-02  -1.3337075965142897e-01  -1.9904372057619257e-01  -2.6348941619829513e-01  -3.2631049530774253e-01  -3.8711962624387264e-01  -4.4554188446723053e-01  -5.0121706370329910e-01  -5.5380189639939492e-01  -6.0297216979682799e-01  -6.4842472456534606e-01  -6.8987932367205718e-01  -7.2708037995800345e-01  -7.5979853176745415e-01  -7.8783205691245417e-01  -8.1100811625242997e-01  -8.2918381921964779e-01  -8.4224710471946029e-01  -8.5011743197296330e-01  -8.5274627704177097e-01  -8.5011743197296308e-01  -8.4224710471945996e-01  -8.2918381921964712e-01  -8.1100811625242897e-01  -7.8783205691245295e-01  -7.5979853176745349e-01  -7.2708037995800190e-01  -6.8987932367205584e-01  -6.4842472456534450e-01  -6.0297216979682700e-01  -5.5380189639939392e-01  -5.0121706370329810e-01  -4.4554188446722959e-01  -3.8711962624387164e-01  -3.2631049530774198e-01  -2.6348941619829519e-01  -1.9904372057619224e-01  -1.3337075965142897e-01  -6.6875454915232502e-02  3.2197709421184195e-05  6.6939654893577713e-02  1.3343436850313134e-01  1.9910632807267953e-01  2.6355058744517262e-01  3.2636975996027889e-01  3.8717646675920719e-01  4.4559572305161843e-01  5.0126724755970531e-01  5.5384768081355085e-01  6.0301269851934125e-01  6.4845900685861080e-01  6.8990620730730090e-01  7.2709851940145809e-01  7.5980635084950632e-01  7.8782770554526116e-01  8.1098942141731800e-01  8.2914823164186113e-01  8.4219164436356653e-01  8.5003863733183793e-01  8.5264016435409218e-01  8.0901699437494745e-01  8.0654998769224950e-01  7.9910583922079070e-01  7.8673104425015361e-01  7.6950244718956262e-01  7.4752676268977325e-01  7.2093991615688546e-01  6.8990620730730123e-01  6.5461730101747684e-01  6.1529105069740397e-01  5.7217016062613535e-01  5.2552069495131581e-01  4.7563044224529938e-01  4.2280714557457605e-01  3.6737660897261665e-01  3.0968069202253906e-01  2.5007520496949825e-01  1.8892771740257028e-01  1.2661529407678596e-01  6.3522171889383083e-02  3.7392380109847939e-05  -6.3447595607372231e-02  -1.2654134828836933e-01  -1.8885483942265108e-01  -2.5000385802489561e-01  -3.0961137649749537e-01  -3.6730987456882364e-01  -4.2274360469528094e-01  -4.7557078494862665e-01  -5.2546570585906538e-01  -5.7212073821662046e-01  -6.1524822944526503e-01  -6.5458227685235704e-01  -6.8988036681595377e-01  -7.2092486979989989e-01  -7.4752438197610793e-01  -7.6951490517975396e-01  -7.8676085792032591e-01  -7.9915591121349316e-01  -8.0662364407920495e-01  -8.0911801466357680e-01  -8.0662364407920450e-01  -7.9915591121349305e-01  -7.8676085792032580e-01  -7.6951490517975296e-01  -7.4752438197610627e-01  -7.2092486979989845e-01  -6.8988036681595255e-01  -6.5458227685235537e-01  -6.1524822944526347e-01  -5.7212073821661946e-01  -5.2546570585906460e-01  -4.7557078494862576e-01  -4.2274360469528022e-01  -3.6730987456882275e-01  -3.0961137649749471e-01  -2.5000385802489555e-01  -1.8885483942265066e-01  -1.2654134828836933e-01  -6.3447595607371773e-02  3.7392380109667087e-05  6.3522171889382251e-02  1.2661529407678571e-01  1.8892771740256950e-01  2.5007520496949814e-01  3.0968069202253856e-01  3.6737660897261587e-01  4.2280714557457544e-01  4.7563044224529888e-01  5.2552069495131581e-01  5.7217016062613502e-01  6.1529105069740342e-01  6.5461730101747695e-01  6.8990620730730112e-01  7.2093991615688535e-01  7.4752676268977303e-01  7.6950244718956229e-01  7.8673104425015350e-01  7.9910583922079037e-01  8.0654998769224928e-01  8.0901699437494745e-01  7.6040596560003093e-01  7.5808839104662717e-01  7.5109270112992488e-01  7.3946256773363317e-01  7.2327019382239310e-01  7.0261586462069636e-01  6.7762732786719682e-01  6.4845900685861113e-01  6.1529105069740397e-01  5.7832822702903330e-01  5.3779866355681516e-01  4.9395244567463242e-01  4.4706007858500818e-01  3.9741082322574617e-01  3.4531091619288684e-01  2.9108168461800266e-01  2.3505756763692856e-01  1.7758405667867022e-01  1.1901556730990971e-01  5.9713255793256599e-02  4.2793856161308165e-05  -5.9627884578316914e-02  -1.1893085077861297e-01  -1.7750044870603862e-01  -2.3497554862959116e-01  -2.9100177294201451e-01  -3.4523368043900826e-01  -3.9733689558186830e-01  -4.4699016960500004e-01  -4.9388736075163486e-01  -5.3773932142107972e-01  -5.7827568058597334e-01  -6.1524651048474566e-01  -6.4842386730881874e-01  -6.7760319638172584e-01  -7.0260459316340196e-01  -7.2327391230237470e-01  -7.3948371789587808e-01  -7.5113406909739056e-01  -7.5815313622660452e-01  -7.6049764358220262e-01  -7.5815313622660396e-01  -7.5113406909739033e-01  -7.3948371789587775e-01  -7.2327391230237370e-01  -7.0260459316340063e-01  -6.7760319638172395e-01  -6.4842386730881740e-01  -6.1524651048474421e-01  -5.7827568058597201e-01  -5.3773932142107839e-01  -4.9388736075163409e-01  -4.4699016960499921e-01  -3.9733689558186763e-01  -3.4523368043900765e-01  -2.9100177294201390e-01  -2.3497554862959116e-01  -1.7750044870603823e-01  -1.1893085077861293e-01  -5.9627884578316463e-02  4.2793856161121540e-05  5.9713255793255808e-02  1.1901556730990941e-01  1.7758405667866953e-01  2.3505756763692842e-01  2.9108168461800210e-01  3.4531091619288606e-01  3.9741082322574561e-01  4.4706007858500763e-01  4.9395244567463215e-01  5.3779866355681516e-01  5.7832822702903297e-01  6.1529105069740364e-01  6.4845900685861102e-01  6.7762732786719648e-01  7.0261586462069625e-01  7.2327019382239288e-01  7.3946256773363250e-01  7.5109270112992477e-01  7.5808839104662684e-01  7.6040596560003093e-01  7.0710678118654757e-01  7.0495268846872428e-01  6.9844836089705131e-01  6.8763