<?xml version="1.0"?>
<VTKFile type="UnstructuredGrid"  version="0.1"  >
<UnstructuredGrid>
<Piece  NumberOfPoints="25921" NumberOfCells="25600">
<Points>
<DataArray  type="Float64"  NumberOfComponents="3"  format="ascii">0 0 0  0.00625 0 0  0.0125 0 0  0.01875 0 0  0.025 0 0  0.03125 0 0  0.0375 0 0  0.04375 0 0  0.05 0 0  0.05625 0 0  0.0625 0 0  0.06875000000000001 0 0  0.075 0 0  0.08125 0 0  0.08749999999999999 0 0  0.09375 0 0  0.1 0 0  0.10625 0 0  0.1125 0 0  0.11875 0 0  0.125 0 0  0.13125 0 0  0.1375 0 0  0.14375 0 0  0.15 0 0  0.15625 0 0  0.1625 0 0  0.16875 0 0  0.175 0 0  0.18125 0 0  0.1875 0 0  0.19375 0 0  0.2 0 0  0.20625 0 0  0.2125 0 0  0.21875 0 0  0.225 0 0  0.23125 0 0  0.2375 0 0  0.24375 0 0  0.25 0 0  0.25625 0 0  0.2625 0 0  0.26875 0 0  0.275 0 0  0.28125 0 0  0.2875 0 0  0.29375 0 0  0.3 0 0  0.30625 0 0  0.3125 0 0  0.31875 0 0  0.325 0 0  0.33125 0 0  0.3375 0 0  0.34375 0 0  0.35 0 0  0.35625 0 0  0.3625 0 0  0.36875 0 0  0.375 0 0  0.38125 0 0  0.3875 0 0  0.39375 0 0  0.4 0 0  0.40625 0 0  0.4125 0 0  0.41875 0 0  0.425 0 0  0.43125 0 0  0.4375 0 0  0.44375 0 0  0.45 0 0  0.45625 0 0  0.4625 0 0  0.46875 0 0  0.475 0 0  0.48125 0 0  0.4875 0 0  0.49375 0 0  0.5 0 0  0.50625 0 0  0.5125 0 0  0.51875 0 0  0.525 0 0  0.53125 0 0  0.5375 0 0  0.54375 0 0  0.55 0 0  0.55625 0 0  0.5625 0 0  0.56875 0 0  0.575 0 0  0.58125 0 0  0.5875 0 0  0.59375 0 0  0.6 0 0  0.60625 0 0  0.6125 0 0  0.61875 0 0  0.625 0 0  0.63125 0 0  0.6375 0 0  0.64375 0 0  0.65 0 0  0.65625 0 0  0.6625 0 0  0.66875 0 0  0.675 0 0  0.68125 0 0  0.6875 0 0  0.69375 0 0  0.7 0 0  0.70625 0 0  0.7125 0 0  0.71875 0 0  0.725 0 0  0.73125 0 0  0.7375 0 0  0.74375 0 0  0.75 0 0  0.75625 0 0  0.7625 0 0  0.76875 0 0  0.775 0 0  0.78125 0 0  0.7875 0 0  0.79375 0 0  0.8 0 0  0.80625 0 0  0.8125 0 0  0.81875 0 0  0.825 0 0  0.83125 0 0  0.8375 0 0  0.84375 0 0  0.85 0 0  0.85625 0 0  0.8625 0 0  0.86875 0 0  0.875 0 0  0.88125 0 0  0.8875 0 0  0.89375 0 0  0.9 0 0  0.90625 0 0  0.9125 0 0  0.91875 0 0  0.925 0 0  0.93125 0 0  0.9375 0 0  0.94375 0 0  0.95 0 0  0.95625 0 0  0.9625 0 0  0.96875 0 0  0.975 0 0  0.98125 0 0  0.9875 0 0  0.99375 0 0  1 0 0  0 0.00625 0  0.00625 0.00625 0  0.0125 0.00625 0  0.01875 0.00625 0  0.025 0.00625 0  0.03125 0.00625 0  0.0375 0.00625 0  0.04375 0.00625 0  0.05 0.00625 0  0.05625 0.00625 0  0.0625 0.00625 0  0.06875000000000001 0.00625 0  0.075 0.00625 0  0.08125 0.00625 0  0.08749999999999999 0.00625 0  0.09375 0.00625 0  0.1 0.00625 0  0.10625 0.00625 0  0.1125 0.00625 0  0.11875 0.00625 0  0.125 0.00625 0  0.13125 0.00625 0  0.1375 0.00625 0  0.14375 0.00625 0  0.15 0.00625 0  0.15625 0.00625 0  0.1625 0.00625 0  0.16875 0.00625 0  0.175 0.00625 0  0.18125 0.00625 0  0.1875 0.00625 0  0.19375 0.00625 0  0.2 0.00625 0  0.20625 0.00625 0  0.2125 0.00625 0  0.21875 0.00625 0  0.225 0.00625 0  0.23125 0.00625 0  0.2375 0.00625 0  0.24375 0.00625 0  0.25 0.00625 0  0.25625 0.00625 0  0.2625 0.00625 0  0.26875 0.00625 0  0.275 0.00625 0  0.28125 0.00625 0  0.2875 0.00625 0  0.29375 0.00625 0  0.3 0.00625 0  0.30625 0.00625 0  0.3125 0.00625 0  0.31875 0.00625 0  0.325 0.00625 0  0.33125 0.00625 0  0.3375 0.00625 0  0.34375 0.00625 0  0.35 0.00625 0  0.35625 0.00625 0  0.3625 0.00625 0  0.36875 0.00625 0  0.375 0.00625 0  0.38125 0.00625 0  0.3875 0.00625 0  0.39375 0.00625 0  0.4 0.00625 0  0.40625 0.00625 0  0.4125 0.00625 0  0.41875 0.00625 0  0.425 0.00625 0  0.43125 0.00625 0  0.4375 0.00625 0  0.44375 0.00625 0  0.45 0.00625 0  0.45625 0.00625 0  0.4625 0.00625 0  0.46875 0.00625 0  0.475 0.00625 0  0.48125 0.00625 0  0.4875 0.00625 0  0.49375 0.00625 0  0.5 0.00625 0  0.50625 0.00625 0  0.5125 0.00625 0  0.51875 0.00625 0  0.525 0.00625 0  0.53125 0.00625 0  0.5375 0.00625 0  0.54375 0.00625 0  0.55 0.00625 0  0.55625 0.00625 0  0.5625 0.00625 0  0.56875 0.00625 0  0.575 0.00625 0  0.58125 0.00625 0  0.5875 0.00625 0  0.59375 0.00625 0  0.6 0.00625 0  0.60625 0.00625 0  0.6125 0.00625 0  0.61875 0.00625 0  0.625 0.00625 0  0.63125 0.00625 0  0.6375 0.00625 0  0.64375 0.00625 0  0.65 0.00625 0  0.65625 0.00625 0  0.6625 0.00625 0  0.66875 0.00625 0  0.675 0.00625 0  0.68125 0.00625 0  0.6875 0.00625 0  0.69375 0.00625 0  0.7 0.00625 0  0.70625 0.00625 0  0.7125 0.00625 0  0.71875 0.00625 0  0.725 0.00625 0  0.73125 0.00625 0  0.7375 0.00625 0  0.74375 0.00625 0  0.75 0.00625 0  0.75625 0.00625 0  0.7625 0.00625 0  0.76875 0.00625 0  0.775 0.00625 0  0.78125 0.00625 0  0.7875 0.00625 0  0.79375 0.00625 0  0.8 0.00625 0  0.80625 0.00625 0  0.8125 0.00625 0  0.81875 0.00625 0  0.825 0.00625 0  0.83125 0.00625 0  0.8375 0.00625 0  0.84375 0.00625 0  0.85 0.00625 0  0.85625 0.00625 0  0.8625 0.00625 0  0.86875 0.00625 0  0.875 0.00625 0  0.88125 0.00625 0  0.8875 0.00625 0  0.89375 0.00625 0  0.9 0.00625 0  0.90625 0.00625 0  0.9125 0.00625 0  0.91875 0.00625 0  0.925 0.00625 0  0.93125 0.00625 0  0.9375 0.00625 0  0.94375 0.00625 0  0.95 0.00625 0  0.95625 0.00625 0  0.9625 0.00625 0  0.96875 0.00625 0  0.975 0.00625 0  0.98125 0.00625 0  0.9875 0.00625 0  0.99375 0.00625 0  1 0.00625 0  0 0.0125 0  0.00625 0.0125 0  0.0125 0.0125 0  0.01875 0.0125 0  0.025 0.0125 0  0.03125 0.0125 0  0.0375 0.0125 0  0.04375 0.0125 0  0.05 0.0125 0  0.05625 0.0125 0  0.0625 0.0125 0  0.06875000000000001 0.0125 0  0.075 0.0125 0  0.08125 0.0125 0  0.08749999999999999 0.0125 0  0.09375 0.0125 0  0.1 0.0125 0  0.10625 0.0125 0  0.1125 0.0125 0  0.11875 0.0125 0  0.125 0.0125 0  0.13125 0.0125 0  0.1375 0.0125 0  0.14375 0.0125 0  0.15 0.0125 0  0.15625 0.0125 0  0.1625 0.0125 0  0.16875 0.0125 0  0.175 0.0125 0  0.18125 0.0125 0  0.1875 0.0125 0  0.19375 0.0125 0  0.2 0.0125 0  0.20625 0.0125 0  0.2125 0.0125 0  0.21875 0.0125 0  0.225 0.0125 0  0.23125 0.0125 0  0.2375 0.0125 0  0.24375 0.0125 0  0.25 0.0125 0  0.25625 0.0125 0  0.2625 0.0125 0  0.26875 0.0125 0  0.275 0.0125 0  0.28125 0.0125 0  0.2875 0.0125 0  0.29375 0.0125 0  0.3 0.0125 0  0.30625 0.0125 0  0.3125 0.0125 0  0.31875 0.0125 0  0.325 0.0125 0  0.33125 0.0125 0  0.3375 0.0125 0  0.34375 0.0125 0  0.35 0.0125 0  0.35625 0.0125 0  0.3625 0.0125 0  0.36875 0.0125 0  0.375 0.0125 0  0.38125 0.0125 0  0.3875 0.0125 0  0.39375 0.0125 0  0.4 0.0125 0  0.40625 0.0125 0  0.4125 0.0125 0  0.41875 0.0125 0  0.425 0.0125 0  0.43125 0.0125 0  0.4375 0.0125 0  0.44375 0.0125 0  0.45 0.0125 0  0.45625 0.0125 0  0.4625 0.0125 0  0.46875 0.0125 0  0.475 0.0125 0  0.48125 0.0125 0  0.4875 0.0125 0  0.49375 0.0125 0  0.5 0.0125 0  0.50625 0.0125 0  0.5125 0.0125 0  0.51875 0.0125 0  0.525 0.0125 0  0.53125 0.0125 0  0.5375 0.0125 0  0.54375 0.0125 0  0.55 0.0125 0  0.55625 0.0125 0  0.5625 0.0125 0  0.56875 0.0125 0  0.575 0.0125 0  0.58125 0.0125 0  0.5875 0.0125 0  0.59375 0.0125 0  0.6 0.0125 0  0.60625 0.0125 0  0.6125 0.0125 0  0.61875 0.0125 0  0.625 0.0125 0  0.63125 0.0125 0  0.6375 0.0125 0  0.64375 0.0125 0  0.65 0.0125 0  0.65625 0.0125 0  0.6625 0.0125 0  0.66875 0.0125 0  0.675 0.0125 0  0.68125 0.0125 0  0.6875 0.0125 0  0.69375 0.0125 0  0.7 0.0125 0  0.70625 0.0125 0  0.7125 0.0125 0  0.71875 0.0125 0  0.725 0.0125 0  0.73125 0.0125 0  0.7375 0.0125 0  0.74375 0.0125 0  0.75 0.0125 0  0.75625 0.0125 0  0.7625 0.0125 0  0.76875 0.0125 0  0.775 0.0125 0  0.78125 0.0125 0  0.7875 0.0125 0  0.79375 0.0125 0  0.8 0.0125 0  0.80625 0.0125 0  0.8125 0.0125 0  0.81875 0.0125 0  0.825 0.0125 0  0.83125 0.0125 0  0.8375 0.0125 0  0.84375 0.0125 0  0.85 0.0125 0  0.85625 0.0125 0  0.8625 0.0125 0  0.86875 0.0125 0  0.875 0.0125 0  0.88125 0.0125 0  0.8875 0.0125 0  0.89375 0.0125 0  0.9 0.0125 0  0.90625 0.0125 0  0.9125 0.0125 0  0.91875 0.0125 0  0.925 0.0125 0  0.93125 0.0125 0  0.9375 0.0125 0  0.94375 0.0125 0  0.95 0.0125 0  0.95625 0.0125 0  0.9625 0.0125 0  0.96875 0.0125 0  0.975 0.0125 0  0.98125 0.0125 0  0.9875 0.0125 0  0.99375 0.0125 0  1 0.0125 0  0 0.01875 0  0.00625 0.01875 0  0.0125 0.01875 0  0.01875 0.01875 0  0.025 0.01875 0  0.03125 0.01875 0  0.0375 0.01875 0  0.04375 0.01875 0  0.05 0.01875 0  0.05625 0.01875 0  0.0625 0.01875 0  0.06875000000000001 0.01875 0  0.075 0.01875 0  0.08125 0.01875 0  0.08749999999999999 0.01875 0  0.09375 0.01875 0  0.1 0.01875 0  0.10625 0.01875 0  0.1125 0.01875 0  0.11875 0.01875 0  0.125 0.01875 0  0.13125 0.01875 0  0.1375 0.01875 0  0.14375 0.01875 0  0.15 0.01875 0  0.15625 0.01875 0  0.1625 0.01875 0  0.16875 0.01875 0  0.175 0.01875 0  0.18125 0.01875 0  0.1875 0.01875 0  0.19375 0.01875 0  0.2 0.01875 0  0.20625 0.01875 0  0.2125 0.01875 0  0.21875 0.01875 0  0.225 0.01875 0  0.23125 0.01875 0  0.2375 0.01875 0  0.24375 0.01875 0  0.25 0.01875 0  0.25625 0.01875 0  0.2625 0.01875 0  0.26875 0.01875 0  0.275 0.01875 0  0.28125 0.01875 0  0.2875 0.01875 0  0.29375 0.01875 0  0.3 0.01875 0  0.30625 0.01875 0  0.3125 0.01875 0  0.31875 0.01875 0  0.325 0.01875 0  0.33125 0.01875 0  0.3375 0.01875 0  0.34375 0.01875 0  0.35 0.01875 0  0.35625 0.01875 0  0.3625 0.01875 0  0.36875 0.01875 0  0.375 0.01875 0  0.38125 0.01875 0  0.3875 0.01875 0  0.39375 0.01875 0  0.4 0.01875 0  0.40625 0.01875 0  0.4125 0.01875 0  0.41875 0.01875 0  0.425 0.01875 0  0.43125 0.01875 0  0.4375 0.01875 0  0.44375 0.01875 0  0.45 0.01875 0  0.45625 0.01875 0  0.4625 0.01875 0  0.46875 0.01875 0  0.475 0.01875 0  0.48125 0.01875 0  0.4875 0.01875 0  0.49375 0.01875 0  0.5 0.01875 0  0.50625 0.01875 0  0.5125 0.01875 0  0.51875 0.01875 0  0.525 0.01875 0  0.53125 0.01875 0  0.5375 0.01875 0  0.54375 0.01875 0  0.55 0.01875 0  0.55625 0.01875 0  0.5625 0.01875 0  0.56875 0.01875 0  0.575 0.01875 0  0.58125 0.01875 0  0.5875 0.01875 0  0.59375 0.01875 0  0.6 0.01875 0  0.60625 0.01875 0  0.6125 0.01875 0  0.61875 0.01875 0  0.625 0.01875 0  0.63125 0.01875 0  0.6375 0.01875 0  0.64375 0.01875 0  0.65 0.01875 0  0.65625 0.01875 0  0.6625 0.01875 0  0.66875 0.01875 0  0.675 0.01875 0  0.68125 0.01875 0  0.6875 0.01875 0  0.69375 0.01875 0  0.7 0.01875 0  0.70625 0.01875 0  0.7125 0.01875 0  0.71875 0.01875 0  0.725 0.01
[...]
<PointData  Scalars="f_17890"> 
<DataArray  type="Float64"  Name="f_17890"  format="ascii">1.0000000000000000e+00  9.9922903624072301e-01  9.9691733373312796e-01  9.9306845695492629e-01  9.8768834059513777e-01  9.8078528040323043e-01  9.7236992039767656e-01  9.6245523645364728e-01  9.5105651629515342e-01  9.3819133592248416e-01  9.2387953251128674e-01  9.0814317382508125e-01  8.9100652418836790e-01  8.7249600707279718e-01  8.5264016435409218e-01  8.3146961230254524e-01  8.0901699437494745e-01  7.8531693088074495e-01  7.6040596560003093e-01  7.3432250943568556e-01  7.0710678118654757e-01  6.7880074553294178e-01  6.4944804833018355e-01  6.1909394930983408e-01  5.8778525229247314e-01  5.5557023301960229e-01  5.2249856471594891e-01  4.8862124149695496e-01  4.5399049973954680e-01  4.1865973753742813e-01  3.8268343236508984e-01  3.4611705707749302e-01  3.0901699437494745e-01  2.7144044986507432e-01  2.3344536385590545e-01  1.9509032201612833e-01  1.5643446504023092e-01  1.1753739745783770e-01  7.8459095727844999e-02  3.9259815759068666e-02  6.1232339957367660e-17  -3.9259815759068326e-02  -7.8459095727844874e-02  -1.1753739745783758e-01  -1.5643446504023106e-01  -1.9509032201612819e-01  -2.3344536385590514e-01  -2.7144044986507421e-01  -3.0901699437494734e-01  -3.4611705707749313e-01  -3.8268343236508973e-01  -4.1865973753742780e-01  -4.5399049973954669e-01  -4.8862124149695468e-01  -5.2249856471594880e-01  -5.5557023301960207e-01  -5.8778525229247303e-01  -6.1909394930983408e-01  -6.4944804833018355e-01  -6.7880074553294178e-01  -7.0710678118654746e-01  -7.3432250943568533e-01  -7.6040596560003093e-01  -7.8531693088074483e-01  -8.0901699437494734e-01  -8.3146961230254535e-01  -8.5264016435409218e-01  -8.7249600707279718e-01  -8.9100652418836779e-01  -9.0814317382508136e-01  -9.2387953251128674e-01  -9.3819133592248405e-01  -9.5105651629515353e-01  -9.6245523645364717e-01  -9.7236992039767656e-01  -9.8078528040323043e-01  -9.8768834059513766e-01  -9.9306845695492640e-01  -9.9691733373312796e-01  -9.9922903624072290e-01  -1.0000000000000000e+00  -9.9922903624072290e-01  -9.9691733373312807e-01  -9.9306845695492629e-01  -9.8768834059513777e-01  -9.8078528040323043e-01  -9.7236992039767667e-01  -9.6245523645364739e-01  -9.5105651629515353e-01  -9.3819133592248416e-01  -9.2387953251128685e-01  -9.0814317382508147e-01  -8.9100652418836812e-01  -8.7249600707279706e-01  -8.5264016435409229e-01  -8.3146961230254546e-01  -8.0901699437494756e-01  -7.8531693088074517e-01  -7.6040596560003071e-01  -7.3432250943568544e-01  -7.0710678118654768e-01  -6.7880074553294212e-01  -6.4944804833018410e-01  -6.1909394930983352e-01  -5.8778525229247325e-01  -5.5557023301960207e-01  -5.2249856471594935e-01  -4.8862124149695529e-01  -4.5399049973954692e-01  -4.1865973753742802e-01  -3.8268343236509034e-01  -3.4611705707749335e-01  -3.0901699437494756e-01  -2.7144044986507421e-01  -2.3344536385590514e-01  -1.9509032201612866e-01  -1.5643446504023104e-01  -1.1753739745783848e-01  -7.8459095727844680e-02  -3.9259815759069012e-02  -1.8369701987210297e-16  3.9259815759068652e-02  7.8459095727844319e-02  1.1753739745783812e-01  1.5643446504023067e-01  1.9509032201612830e-01  2.3344536385590478e-01  2.7144044986507387e-01  3.0901699437494723e-01  3.4611705707749302e-01  3.8268343236509000e-01  4.1865973753742769e-01  4.5399049973954664e-01  4.8862124149695496e-01  5.2249856471594902e-01  5.5557023301960184e-01  5.8778525229247292e-01  6.1909394930983330e-01  6.4944804833018388e-01  6.7880074553294145e-01  7.0710678118654735e-01  7.3432250943568544e-01  7.6040596560003049e-01  7.8531693088074517e-01  8.0901699437494734e-01  8.3146961230254524e-01  8.5264016435409185e-01  8.7249600707279684e-01  8.9100652418836779e-01  9.0814317382508125e-01  9.2387953251128652e-01  9.3819133592248405e-01  9.5105651629515353e-01  9.6245523645364728e-01  9.7236992039767667e-01  9.8078528040323032e-01  9.8768834059513766e-01  9.9306845695492618e-01  9.9691733373312796e-01  9.9922903624072279e-01  1.0000000000000000e+00  9.9922903624072301e-01  9.9845866725169197e-01  9.9614874696820577e-01  9.9230283753133708e-01  9.8692686904298299e-01  9.8002913085678023e-01  9.7162025878491209e-01  9.6171321869856663e-01  9.5032328653545273e-01  9.3746802474538793e-01  9.2316725521027054e-01  9.0744302868017290e-01  8.9031959077268363e-01  8.7182334458791844e-01  8.5198280999685350e-01  8.3082857966575385e-01  8.0839327188449728e-01  7.8471148027153526e-01  7.5981972043304136e-01  7.3375637365849278e-01  7.0656162773950393e-01  6.7827741500316729e-01  6.4894734765543871e-01  6.1861665053428272e-01  5.8733209137624431e-01  5.5514190870399382e-01  5.2209573744601778e-01  4.8824453240316462e-01  4.5364048968002302e-01  4.1833696620231964e-01  3.8238839744440800e-01  3.4585021349370632e-01  3.0877875358152579e-01  2.7123117921205764e-01  2.3326538602347560e-01  1.9493991451706055e-01  1.5631385979198972e-01  1.1744678042497664e-01  7.8398606635262866e-02  3.9229547876562743e-02  -1.5478414324374745e-12  -3.9229547879655137e-02  -7.8398606638346316e-02  -1.1744678042804535e-01  -1.5631385979503695e-01  -1.9493991452007922e-01  -2.3326538602645919e-01  -2.7123117921499978e-01  -3.0877875358441942e-01  -3.4585021349654327e-01  -3.8238839744718112e-01  -4.1833696620502109e-01  -4.5364048968264203e-01  -4.8824453240569365e-01  -5.2209573744844540e-01  -5.5514190870630742e-01  -5.8733209137843523e-01  -6.1861665053633763e-01  -6.4894734765734552e-01  -6.7827741500491079e-01  -7.0656162774106845e-01  -7.3375637365986168e-01  -7.5981972043419443e-01  -7.8471148027245141e-01  -8.0839327188515209e-01  -8.3082857966612222e-01  -8.5198280999690790e-01  -8.7182334458762645e-01  -8.9031959077200951e-01  -9.0744302867907611e-01  -9.2316725520870524e-01  -9.3746802474330326e-01  -9.5032328653278753e-01  -9.6171321869524840e-01  -9.7162025878084679e-01  -9.8002913085184906e-01  -9.8692686903700888e-01  -9.9230283752400184e-01  -9.9614874695908207e-01  -9.9845866722865273e-01  -9.9922903660308859e-01  -9.9845866722865162e-01  -9.9614874695908029e-01  -9.9230283752400028e-01  -9.8692686903700566e-01  -9.8002913085184518e-01  -9.7162025878084257e-01  -9.6171321869524240e-01  -9.5032328653278197e-01  -9.3746802474329705e-01  -9.2316725520869869e-01  -9.0744302867906901e-01  -8.9031959077200229e-01  -8.7182334458761801e-01  -8.5198280999690068e-01  -8.3082857966611534e-01  -8.0839327188514309e-01  -7.8471148027243920e-01  -7.5981972043418189e-01  -7.3375637365985191e-01  -7.0656162774106224e-01  -6.7827741500490457e-01  -6.4894734765734063e-01  -6.1861665053633152e-01  -5.8733209137842934e-01  -5.5514190870630276e-01  -5.2209573744844107e-01  -4.8824453240568910e-01  -4.5364048968263798e-01  -4.1833696620501709e-01  -3.8238839744717928e-01  -3.4585021349654205e-01  -3.0877875358441736e-01  -2.7123117921499662e-01  -2.3326538602645597e-01  -1.9493991452007581e-01  -1.5631385979503298e-01  -1.1744678042804194e-01  -7.8398606638341931e-02  -3.9229547879651154e-02  -1.5432510202085499e-12  3.9229547876567732e-02  7.8398606635268056e-02  1.1744678042498334e-01  1.5631385979199700e-01  1.9493991451706863e-01  2.3326538602348337e-01  2.7123117921206524e-01  3.0877875358153573e-01  3.4585021349371747e-01  3.8238839744441994e-01  4.1833696620233207e-01  4.5364048968003545e-01  4.8824453240317928e-01  5.2209573744603233e-01  5.5514190870400693e-01  5.8733209137625786e-01  6.1861665053429726e-01  6.4894734765545470e-01  6.7827741500318250e-01  7.0656162773951936e-01  7.3375637365850765e-01  7.5981972043305623e-01  7.8471148027155235e-01  8.0839327188451693e-01  8.3082857966577439e-01  8.5198280999687270e-01  8.7182334458793576e-01  8.9031959077270040e-01  9.0744302868018867e-01  9.2316725521028353e-01  9.3746802474540047e-01  9.5032328653546527e-01  9.6171321869857862e-01  9.7162025878492153e-01  9.8002913085678978e-01  9.8692686904298899e-01  9.9230283753134074e-01  9.9614874696820832e-01  9.9845866725169363e-01  9.9922903624072290e-01  9.9691733373312796e-01  9.9614874696820643e-01  9.9384417065616315e-01  9.9000715867646816e-01  9.8464362741568534e-01  9.7776184705025393e-01  9.6937242878657348e-01  9.5948830849945488e-01  9.4812472678592075e-01  9.3529920546529000e-01  9.2103152056180226e-01  9.0534367181141617e-01  8.8825984873981334e-01  8.6980639336389842e-01  8.5001175957431907e-01  8.2890646926162592e-01  8.0652306525373252e-01  7.8289606113722787e-01  7.5806188803993768e-01  7.3205883845675257e-01  7.0492700720538848e-01  6.7670822960307686e-01  6.4744601695953907e-01  6.1718548948570229e-01  5.8597330672159942e-01  5.5385759559074466e-01  5.2088787619190813e-01  4.8711498544270815e-01  4.5259099869277025e-01  4.1736914942731129e-01  3.8150374718496755e-01  3.4505009381641971e-01  3.0806439821294590e-01  2.7060368963638981e-01  2.3272572978416706e-01  1.9448892372492035e-01  1.5595222984213380e-01  1.1717506892457832e-01  7.8217232543763227e-02  3.9138790859666150e-02  -3.0986828206481809e-12  -3.9138790865857212e-02  -7.8217232549936483e-02  -1.1717506893072135e-01  -1.5595222984823412e-01  -1.9448892373096413e-01  -2.3272572979014108e-01  -2.7060368964228043e-01  -3.0806439821873960e-01  -3.4505009382210106e-01  -3.8150374719052138e-01  -4.1736914943272052e-01  -4.5259099869801667e-01  -4.8711498544777443e-01  -5.2088787619677268e-01  -5.5385759559538439e-01  -5.8597330672599224e-01  -6.1718548948982477e-01  -6.4744601696336634e-01  -6.7670822960657850e-01  -7.0492700720853352e-01  -7.3205883845950737e-01  -7.5806188804226260e-01  -7.8289606113908061e-01  -8.0652306525506545e-01  -8.2890646926239009e-01  -8.5001175957445940e-01  -8.6980639336335019e-01  -8.8825984873850539e-01  -9.0534367180926745e-01  -9.2103152055872439e-01  -9.3529920546118284e-01  -9.4812472678066395e-01  -9.5948830849290567e-01  -9.6937242877855623e-01  -9.7776184704055069e-01  -9.8464362740400768e-01  -9.9000715866240541e-01  -9.9384417063930330e-01  -9.9614874694034050e-01  -9.9691733407590422e-01  -9.9614874694033817e-01  -9.9384417063929931e-01  -9.9000715866240097e-01  -9.8464362740400146e-01  -9.7776184704054492e-01  -9.6937242877854823e-01  -9.5948830849289535e-01  -9.4812472678065163e-01  -9.3529920546117107e-01  -9.2103152055871285e-01  -9.0534367180925424e-01  -8.8825984873849051e-01  -8.6980639336333621e-01  -8.5001175957444508e-01  -8.2890646926237677e-01  -8.0652306525504924e-01  -7.8289606113906052e-01  -7.5806188804224117e-01  -7.3205883845948883e-01  -7.0492700720851953e-01  -6.7670822960656585e-01  -6.4744601696335558e-01  -6.1718548948981344e-01  -5.8597330672598147e-01  -5.5385759559537451e-01  -5.2088787619676391e-01  -4.8711498544776655e-01  -4.5259099869800967e-01  -4.1736914943271441e-01  -3.8150374719051727e-01  -3.4505009382209706e-01  -3.0806439821873516e-01  -2.7060368964227416e-01  -2.3272572979013459e-01  -1.9448892373095775e-01  -1.5595222984822685e-01  -1.1717506893071453e-01  -7.8217232549928267e-02  -3.9138790865849163e-02  -3.0895696949661099e-12  3.9138790859676115e-02  7.8217232543773926e-02  1.1717506892459129e-01  1.5595222984214813e-01  1.9448892372493592e-01  2.3272572978418324e-01  2.7060368963640596e-01  3.0806439821296511e-01  3.4505009381644058e-01  3.8150374718499080e-01  4.1736914942733533e-01  4.5259099869279507e-01  4.8711498544273601e-01  5.2088787619193577e-01  5.5385759559077219e-01  5.8597330672162651e-01  6.1718548948573049e-01  6.4744601695956938e-01  6.7670822960310717e-01  7.0492700720541845e-01  7.3205883845678332e-01  7.5806188803996954e-01  7.8289606113726296e-01  8.0652306525376927e-01  8.2890646926166489e-01  8.5001175957435748e-01  8.6980639336393450e-01  8.8825984873984554e-01  9.0534367181144493e-01  9.2103152056182835e-01  9.3529920546531498e-01  9.4812472678594395e-01  9.5948830849947597e-01  9.6937242878659147e-01  9.7776184705027003e-01  9.8464362741569889e-01  9.9000715867647660e-01  9.9384417065617003e-01  9.9614874696820843e-01  9.9691733373312796e-01  9.9306845695492629e-01  9.9230283753133641e-01  9.9000715867646627e-01  9.8618496054852145e-01  9.8084213669188092e-01  9.7398692535378983e-01  9.6562989677317368e-01  9.5578393688230256e-01  9.4446422743762459e-01  9.3168822261059547e-01  9.1747562207460032e-01  9.0184834062949049e-01  8.8483047441054552e-01  8.6644826373397787e-01  8.4673005263627177e-01  8.2570624516971969e-01  8.0340925852158751e-01  7.7987347302915866e-01  7.5513517916774753e-01  7.2923252159341234e-01  7.0220544032666243e-01  6.7409560916784617e-01  6.4494637143916655e-01  6.1480267315241310e-01  5.8371099370548174e-01  5.5171927421450462e-01  5.1887684359212838e-01  4.8523434248590358e-01  4.5084364519407588e-01  4.1575777967917893e-01  3.8003084580276092e-01  3.4371793190731675e-01  3.0687502987405862e-01  2.6955894878749281e-01  2.3182722733992908e-01  1.9373804511098874e-01  1.5535013285890875e-01  1.1672268196196914e-01  7.7915253149678454e-02  3.8987684664444522e-02  -4.6554953315048472e-12  -3.8987684673746303e-02  -7.7915253158953382e-02  -1.1672268197119899e-01  -1.5535013286807456e-01  -1.9373804512007078e-01  -2.3182722734890718e-01  -2.6955894879634645e-01  -3.0687502988276649e-01  -3.4371793191585759e-01  -3.8003084581111096e-01  -4.1575777968731409e-01  -4.5084364520196807e-01  -4.8523434249352526e-01  -5.1887684359944963e-01  -5.5171927422149192e-01  -5.8371099371210156e-01  -6.1480267315863002e-01  -6.4494637144494216e-01  -6.7409560917313827e-01  -7.0220544033142207e-01  -7.2923252159758878e-01  -7.5513517917128492e-01  -7.7987347303199106e-01  -8.0340925852364731e-01  -8.2570624517093183e-01  -8.4673005263655576e-01  -8.6644826373323991e-01  -8.8483047440867768e-01  -9.0184834062637631e-01  -9.1747562207011124e-01  -9.3168822260458184e-01  -9.4446422742991354e-01  -9.5578393687268981e-01  -9.6562989676141775e-01  -9.7398692533959830e-01  -9.8084213667489362e-01  -9.8618496052830118e-01  -9.9000715865269362e-01  -9.9230283749560289e-01  -9.9306845728664694e-01  -9.9230283749560000e-01  -9.9000715865268918e-01  -9.8618496052829518e-01  -9.8084213667488462e-01  -9.7398692533958808e-01  -9.6562989676140598e-01  -9.5578393687267582e-01  -9.4446422742989822e-01  -9.3168822260456596e-01  -9.1747562207009670e-01  -9.0184834062636099e-01  -8.8483047440866058e-01  -8.6644826373321993e-01  -8.4673005263653556e-01  -8.2570624517091196e-01  -8.0340925852362488e-01  -7.7987347303196475e-01  -7.5513517917125572e-01  -7.2923252159756269e-01  -7.0220544033140109e-01  -6.7409560917312028e-01  -6.4494637144492573e-01  -6.1480267315861414e-01  -5.8371099371208623e-01  -5.5171927422147815e-01  -5.1887684359943753e-01  -4.8523434249351555e-01  -4.5084364520195835e-01  -4.1575777968730587e-01  -3.8003084581110491e-01  -3.4371793191585182e-01  -3.0687502988276005e-01  -2.6955894879633813e-01  -2.3182722734889821e-01  -1.9373804512006157e-01  -1.5535013286806457e-01  -1.1672268197118904e-01  -7.7915253158941697e-02  -3.8987684673734466e-02  -4.6421565021087819e-12  3.8987684664459253e-02  7.7915253149694524e-02  1.1672268196198836e-01  1.5535013285892990e-01  1.9373804511101209e-01  2.3182722733995390e-01  2.6955894878751824e-01  3.0687502987408710e-01  3.4371793190734806e-01  3.8003084580279511e-01  4.1575777967921523e-01  4.5084364519411313e-01  4.8523434248594327e-01  5.1887684359216812e-01  5.5171927421454381e-01  5.8371099370552171e-01  6.1480267315245452e-01  6.4494637143921074e-01  6.7409560916789235e-01  7.0220544032670895e-01  7.2923252159345864e-01  7.5513517916779660e-01  7.7987347302921095e-01  8.0340925852164036e-01  8.2570624516977387e-01  8.4673005263632506e-01  8.6644826373402972e-01  8.8483047441059259e-01  9.0184834062953212e-01  9.1747562207463929e-01  9.3168822261063156e-01  9.4446422743765779e-01  9.5578393688233221e-01  9.6562989677319921e-01  9.7398692535381493e-01  9.8084213669190035e-01  9.8618496054853688e-01  9.9000715867647815e-01  9.9230283753134119e-01  9.9306845695492629e-01  9.8768834059513777e-01  9.8692686904298521e-01  9.8464362741568656e-01  9.8084213669188136e-01  9.7552825848657609e-01  9.6871018641490703e-01  9.6039843344975118e-01  9.5060581571166736e-01  9.3934743270736720e-01  9.2664064404737434e-01  9.1250504267875787e-01  8.9696242467422727e-01  8.8003675562416950e-01  8.6175413368344278e-01  8.4214274932991073e-01  8.2123284189676560e-01  7.9905665294567685e-01  7.7564837655263141e-01  7.5104410658315102e-01  7.2528178103816532e-01  6.9840112355636452e-01  6.7044358216323086e-01  6.4145226536118272e-01  6.1147187565938943e-01  5.8054864064574130e-01  5.4873024170726659e-01  5.1606574050887821e-01  4.8260550334385111e-01  4.4840112347264344e-01  4.1350534156983026e-01  3.7797196440180592e-01  3.4185578186065085e-01  3.0521248248208643e-01  2.6809856757779343e-01  2.3057126411448037e-01  1.9268843647405309e-01  1.5450849723092966e-01  1.1609031708408393e-01  7.7493134082695203e-02  3.8776462285370253e-02  -6.2212617273075894e-12  -3.8776462297800594e-02  -7.7493134095089927e-02  -1.1609031709641852e-01  -1.5450849724317958e-01  -1.9268843648619235e-01  -2.3057126412648199e-01  -2.6809856758963035e-01  -3.0521248249373117e-01  -3.4185578187207377e-01  -3.7797196441297670e-01  -4.1350534158071589e-01  -4.4840112348320832e-01  -4.8260550335405877e-01  -5.1606574051868803e-01  -5.4873024171663565e-01  -5.8054864065462530e-01  -6.1147187566773931e-01  -6.4145226536894817e-01  -6.7044358217035505e-01  -6.9840112356278539e-01  -7.2528178104381524e-01  -7.5104410658795673e-01  -7.7564837655650820e-01  -7.9905665294853523e-01  -8.2123284189850698e-01  -8.4214274933042688e-01  -8.6175413368261400e-01  -8.8003675562185812e-01  -8.9696242467028087e-01  -9.1250504267300692e-01  -9.2664064403962676e-01  -9.3934743269740106e-01  -9.5060581569922864e-01  -9.6039843343454256e-01  -9.6871018639657891e-01  -9.7552825846471636e-01  -9.8084213666601128e-01  -9.8464362738543509e-01  -9.8692686899983484e-01  -9.8768834091613367e-01  -9.8692686899983095e-01  -9.8464362738542810e-01  -9.8084213666600317e-01  -9.7552825846470514e-01  -9.6871018639656559e-01  -9.6039843343452824e-01  -9.5060581569921354e-01  -9.3934743269738363e-01  -9.2664064403960811e-01  -9.1250504267298826e-01  -8.9696242467026144e-01  -8.8003675562183714e-01  -8.6175413368259035e-01  -8.4214274933040056e-01  -8.2123284189848100e-01  -7.9905665294850670e-01  -7.7564837655647612e-01  -7.5104410658792231e-01  -7.2528178104378405e-01  -6.9840112356275852e-01  -6.7044358217033129e-01  -6.4145226536892608e-01  -6.1147187566771877e-01  -5.8054864065460765e-01  -5.4873024171661966e-01  -5.1606574051867360e-01  -4.8260550335404645e-01  -4.4840112348319733e-01  -4.1350534158070629e-01  -3.7797196441296882e-01  -3.4185578187206617e-01  -3.0521248249372290e-01  -2.6809856758962025e-01  -2.3057126412647108e-01  -1.9268843648618111e-01  -1.5450849724316734e-01  -1.1609031709640602e-01  -7.7493134095075286e-02  -3.8776462297785218e-02  -6.2039620249287967e-12  3.8776462285389335e-02  7.7493134082716200e-02  1.1609031708410840e-01  1.5450849723095730e-01  1.9268843647408335e-01  2.3057126411451190e-01  2.6809856757782646e-01  3.0521248248212385e-01  3.4185578186069204e-01  3.7797196440185049e-01  4.1350534156987706e-01  4.4840112347269206e-01  4.8260550334390245e-01  5.1606574050892939e-01  5.4873024170731843e-01  5.8054864064579415e-01  6.1147187565944172e-01  6.4145226536123767e-01  6.7044358216328737e-01  6.9840112355642270e-01  7.2528178103822394e-01  7.5104410658321330e-01  7.7564837655269558e-01  7.9905665294574302e-01  8.2123284189683321e-01  8.4214274932997679e-01  8.6175413368350740e-01  8.8003675562423034e-01  8.9696242467428289e-01  9.1250504267880783e-01  9.2664064404742164e-01  9.3934743270741039e-01  9.5060581571170699e-01  9.6039843344978715e-01  9.6871018641493933e-01  9.7552825848660352e-01  9.8084213669190312e-01  9.8464362741570144e-01  9.8692686904299121e-01  9.8768834059513777e-01  9.8078528040323043e-01  9.8002913085678500e-01  9.7776184705025804e-01  9.7398692535379383e-01  9.6871018641490914e-01  9.6193976658266900e-01  9.5368610535364751e-01  9.439619292751583