<?xml version="1.0"?>
<VTKFile type="UnstructuredGrid"  version="0.1"  >
<UnstructuredGrid>
<Piece  NumberOfPoints="6561" NumberOfCells="6400">
<Points>
<DataArray  type="Float64"  NumberOfComponents="3"  format="ascii">0 0 0  0.0125 0 0  0.025 0 0  0.0375 0 0  0.05 0 0  0.0625 0 0  0.075 0 0  0.08749999999999999 0 0  0.1 0 0  0.1125 0 0  0.125 0 0  0.1375 0 0  0.15 0 0  0.1625 0 0  0.175 0 0  0.1875 0 0  0.2 0 0  0.2125 0 0  0.225 0 0  0.2375 0 0  0.25 0 0  0.2625 0 0  0.275 0 0  0.2875 0 0  0.3 0 0  0.3125 0 0  0.325 0 0  0.3375 0 0  0.35 0 0  0.3625 0 0  0.375 0 0  0.3875 0 0  0.4 0 0  0.4125 0 0  0.425 0 0  0.4375 0 0  0.45 0 0  0.4625 0 0  0.475 0 0  0.4875 0 0  0.5 0 0  0.5125 0 0  0.525 0 0  0.5375 0 0  0.55 0 0  0.5625 0 0  0.575 0 0  0.5875 0 0  0.6 0 0  0.6125 0 0  0.625 0 0  0.6375 0 0  0.65 0 0  0.6625 0 0  0.675 0 0  0.6875 0 0  0.7 0 0  0.7125 0 0  0.725 0 0  0.7375 0 0  0.75 0 0  0.7625 0 0  0.775 0 0  0.7875 0 0  0.8 0 0  0.8125 0 0  0.825 0 0  0.8375 0 0  0.85 0 0  0.8625 0 0  0.875 0 0  0.8875 0 0  0.9 0 0  0.9125 0 0  0.925 0 0  0.9375 0 0  0.95 0 0  0.9625 0 0  0.975 0 0  0.9875 0 0  1 0 0  0 0.0125 0  0.0125 0.0125 0  0.025 0.0125 0  0.0375 0.0125 0  0.05 0.0125 0  0.0625 0.0125 0  0.075 0.0125 0  0.08749999999999999 0.0125 0  0.1 0.0125 0  0.1125 0.0125 0  0.125 0.0125 0  0.1375 0.0125 0  0.15 0.0125 0  0.1625 0.0125 0  0.175 0.0125 0  0.1875 0.0125 0  0.2 0.0125 0  0.2125 0.0125 0  0.225 0.0125 0  0.2375 0.0125 0  0.25 0.0125 0  0.2625 0.0125 0  0.275 0.0125 0  0.2875 0.0125 0  0.3 0.0125 0  0.3125 0.0125 0  0.325 0.0125 0  0.3375 0.0125 0  0.35 0.0125 0  0.3625 0.0125 0  0.375 0.0125 0  0.3875 0.0125 0  0.4 0.0125 0  0.4125 0.0125 0  0.425 0.0125 0  0.4375 0.0125 0  0.45 0.0125 0  0.4625 0.0125 0  0.475 0.0125 0  0.4875 0.0125 0  0.5 0.0125 0  0.5125 0.0125 0  0.525 0.0125 0  0.5375 0.0125 0  0.55 0.0125 0  0.5625 0.0125 0  0.575 0.0125 0  0.5875 0.0125 0  0.6 0.0125 0  0.6125 0.0125 0  0.625 0.0125 0  0.6375 0.0125 0  0.65 0.0125 0  0.6625 0.0125 0  0.675 0.0125 0  0.6875 0.0125 0  0.7 0.0125 0  0.7125 0.0125 0  0.725 0.0125 0  0.7375 0.0125 0  0.75 0.0125 0  0.7625 0.0125 0  0.775 0.0125 0  0.7875 0.0125 0  0.8 0.0125 0  0.8125 0.0125 0  0.825 0.0125 0  0.8375 0.0125 0  0.85 0.0125 0  0.8625 0.0125 0  0.875 0.0125 0  0.8875 0.0125 0  0.9 0.0125 0  0.9125 0.0125 0  0.925 0.0125 0  0.9375 0.0125 0  0.95 0.0125 0  0.9625 0.0125 0  0.975 0.0125 0  0.9875 0.0125 0  1 0.0125 0  0 0.025 0  0.0125 0.025 0  0.025 0.025 0  0.0375 0.025 0  0.05 0.025 0  0.0625 0.025 0  0.075 0.025 0  0.08749999999999999 0.025 0  0.1 0.025 0  0.1125 0.025 0  0.125 0.025 0  0.1375 0.025 0  0.15 0.025 0  0.1625 0.025 0  0.175 0.025 0  0.1875 0.025 0  0.2 0.025 0  0.2125 0.025 0  0.225 0.025 0  0.2375 0.025 0  0.25 0.025 0  0.2625 0.025 0  0.275 0.025 0  0.2875 0.025 0  0.3 0.025 0  0.3125 0.025 0  0.325 0.025 0  0.3375 0.025 0  0.35 0.025 0  0.3625 0.025 0  0.375 0.025 0  0.3875 0.025 0  0.4 0.025 0  0.4125 0.025 0  0.425 0.025 0  0.4375 0.025 0  0.45 0.025 0  0.4625 0.025 0  0.475 0.025 0  0.4875 0.025 0  0.5 0.025 0  0.5125 0.025 0  0.525 0.025 0  0.5375 0.025 0  0.55 0.025 0  0.5625 0.025 0  0.575 0.025 0  0.5875 0.025 0  0.6 0.025 0  0.6125 0.025 0  0.625 0.025 0  0.6375 0.025 0  0.65 0.025 0  0.6625 0.025 0  0.675 0.025 0  0.6875 0.025 0  0.7 0.025 0  0.7125 0.025 0  0.725 0.025 0  0.7375 0.025 0  0.75 0.025 0  0.7625 0.025 0  0.775 0.025 0  0.7875 0.025 0  0.8 0.025 0  0.8125 0.025 0  0.825 0.025 0  0.8375 0.025 0  0.85 0.025 0  0.8625 0.025 0  0.875 0.025 0  0.8875 0.025 0  0.9 0.025 0  0.9125 0.025 0  0.925 0.025 0  0.9375 0.025 0  0.95 0.025 0  0.9625 0.025 0  0.975 0.025 0  0.9875 0.025 0  1 0.025 0  0 0.0375 0  0.0125 0.0375 0  0.025 0.0375 0  0.0375 0.0375 0  0.05 0.0375 0  0.0625 0.0375 0  0.075 0.0375 0  0.08749999999999999 0.0375 0  0.1 0.0375 0  0.1125 0.0375 0  0.125 0.0375 0  0.1375 0.0375 0  0.15 0.0375 0  0.1625 0.0375 0  0.175 0.0375 0  0.1875 0.0375 0  0.2 0.0375 0  0.2125 0.0375 0  0.225 0.0375 0  0.2375 0.0375 0  0.25 0.0375 0  0.2625 0.0375 0  0.275 0.0375 0  0.2875 0.0375 0  0.3 0.0375 0  0.3125 0.0375 0  0.325 0.0375 0  0.3375 0.0375 0  0.35 0.0375 0  0.3625 0.0375 0  0.375 0.0375 0  0.3875 0.0375 0  0.4 0.0375 0  0.4125 0.0375 0  0.425 0.0375 0  0.4375 0.0375 0  0.45 0.0375 0  0.4625 0.0375 0  0.475 0.0375 0  0.4875 0.0375 0  0.5 0.0375 0  0.5125 0.0375 0  0.525 0.0375 0  0.5375 0.0375 0  0.55 0.0375 0  0.5625 0.0375 0  0.575 0.0375 0  0.5875 0.0375 0  0.6 0.0375 0  0.6125 0.0375 0  0.625 0.0375 0  0.6375 0.0375 0  0.65 0.0375 0  0.6625 0.0375 0  0.675 0.0375 0  0.6875 0.0375 0  0.7 0.0375 0  0.7125 0.0375 0  0.725 0.0375 0  0.7375 0.0375 0  0.75 0.0375 0  0.7625 0.0375 0  0.775 0.0375 0  0.7875 0.0375 0  0.8 0.0375 0  0.8125 0.0375 0  0.825 0.0375 0  0.8375 0.0375 0  0.85 0.0375 0  0.8625 0.0375 0  0.875 0.0375 0  0.8875 0.0375 0  0.9 0.0375 0  0.9125 0.0375 0  0.925 0.0375 0  0.9375 0.0375 0  0.95 0.0375 0  0.9625 0.0375 0  0.975 0.0375 0  0.9875 0.0375 0  1 0.0375 0  0 0.05 0  0.0125 0.05 0  0.025 0.05 0  0.0375 0.05 0  0.05 0.05 0  0.0625 0.05 0  0.075 0.05 0  0.08749999999999999 0.05 0  0.1 0.05 0  0.1125 0.05 0  0.125 0.05 0  0.1375 0.05 0  0.15 0.05 0  0.1625 0.05 0  0.175 0.05 0  0.1875 0.05 0  0.2 0.05 0  0.2125 0.05 0  0.225 0.05 0  0.2375 0.05 0  0.25 0.05 0  0.2625 0.05 0  0.275 0.05 0  0.2875 0.05 0  0.3 0.05 0  0.3125 0.05 0  0.325 0.05 0  0.3375 0.05 0  0.35 0.05 0  0.3625 0.05 0  0.375 0.05 0  0.3875 0.05 0  0.4 0.05 0  0.4125 0.05 0  0.425 0.05 0  0.4375 0.05 0  0.45 0.05 0  0.4625 0.05 0  0.475 0.05 0  0.4875 0.05 0  0.5 0.05 0  0.5125 0.05 0  0.525 0.05 0  0.5375 0.05 0  0.55 0.05 0  0.5625 0.05 0  0.575 0.05 0  0.5875 0.05 0  0.6 0.05 0  0.6125 0.05 0  0.625 0.05 0  0.6375 0.05 0  0.65 0.05 0  0.6625 0.05 0  0.675 0.05 0  0.6875 0.05 0  0.7 0.05 0  0.7125 0.05 0  0.725 0.05 0  0.7375 0.05 0  0.75 0.05 0  0.7625 0.05 0  0.775 0.05 0  0.7875 0.05 0  0.8 0.05 0  0.8125 0.05 0  0.825 0.05 0  0.8375 0.05 0  0.85 0.05 0  0.8625 0.05 0  0.875 0.05 0  0.8875 0.05 0  0.9 0.05 0  0.9125 0.05 0  0.925 0.05 0  0.9375 0.05 0  0.95 0.05 0  0.9625 0.05 0  0.975 0.05 0  0.9875 0.05 0  1 0.05 0  0 0.0625 0  0.0125 0.0625 0  0.025 0.0625 0  0.0375 0.0625 0  0.05 0.0625 0  0.0625 0.0625 0  0.075 0.0625 0  0.08749999999999999 0.0625 0  0.1 0.0625 0  0.1125 0.0625 0  0.125 0.0625 0  0.1375 0.0625 0  0.15 0.0625 0  0.1625 0.0625 0  0.175 0.0625 0  0.1875 0.0625 0  0.2 0.0625 0  0.2125 0.0625 0  0.225 0.0625 0  0.2375 0.0625 0  0.25 0.0625 0  0.2625 0.0625 0  0.275 0.0625 0  0.2875 0.0625 0  0.3 0.0625 0  0.3125 0.0625 0  0.325 0.0625 0  0.3375 0.0625 0  0.35 0.0625 0  0.3625 0.0625 0  0.375 0.0625 0  0.3875 0.0625 0  0.4 0.0625 0  0.4125 0.0625 0  0.425 0.0625 0  0.4375 0.0625 0  0.45 0.0625 0  0.4625 0.0625 0  0.475 0.0625 0  0.4875 0.0625 0  0.5 0.0625 0  0.5125 0.0625 0  0.525 0.0625 0  0.5375 0.0625 0  0.55 0.0625 0  0.5625 0.0625 0  0.575 0.0625 0  0.5875 0.0625 0  0.6 0.0625 0  0.6125 0.0625 0  0.625 0.0625 0  0.6375 0.0625 0  0.65 0.0625 0  0.6625 0.0625 0  0.675 0.0625 0  0.6875 0.0625 0  0.7 0.0625 0  0.7125 0.0625 0  0.725 0.0625 0  0.7375 0.0625 0  0.75 0.0625 0  0.7625 0.0625 0  0.775 0.0625 0  0.7875 0.0625 0  0.8 0.0625 0  0.8125 0.0625 0  0.825 0.0625 0  0.8375 0.0625 0  0.85 0.0625 0  0.8625 0.0625 0  0.875 0.0625 0  0.8875 0.0625 0  0.9 0.0625 0  0.9125 0.0625 0  0.925 0.0625 0  0.9375 0.0625 0  0.95 0.0625 0  0.9625 0.0625 0  0.975 0.0625 0  0.9875 0.0625 0  1 0.0625 0  0 0.075 0  0.0125 0.075 0  0.025 0.075 0  0.0375 0.075 0  0.05 0.075 0  0.0625 0.075 0  0.075 0.075 0  0.08749999999999999 0.075 0  0.1 0.075 0  0.1125 0.075 0  0.125 0.075 0  0.1375 0.075 0  0.15 0.075 0  0.1625 0.075 0  0.175 0.075 0  0.1875 0.075 0  0.2 0.075 0  0.2125 0.075 0  0.225 0.075 0  0.2375 0.075 0  0.25 0.075 0  0.2625 0.075 0  0.275 0.075 0  0.2875 0.075 0  0.3 0.075 0  0.3125 0.075 0  0.325 0.075 0  0.3375 0.075 0  0.35 0.075 0  0.3625 0.075 0  0.375 0.075 0  0.3875 0.075 0  0.4 0.075 0  0.4125 0.075 0  0.425 0.075 0  0.4375 0.075 0  0.45 0.075 0  0.4625 0.075 0  0.475 0.075 0  0.4875 0.075 0  0.5 0.075 0  0.5125 0.075 0  0.525 0.075 0  0.5375 0.075 0  0.55 0.075 0  0.5625 0.075 0  0.575 0.075 0  0.5875 0.075 0  0.6 0.075 0  0.6125 0.075 0  0.625 0.075 0  0.6375 0.075 0  0.65 0.075 0  0.6625 0.075 0  0.675 0.075 0  0.6875 0.075 0  0.7 0.075 0  0.7125 0.075 0  0.725 0.075 0  0.7375 0.075 0  0.75 0.075 0  0.7625 0.075 0  0.775 0.075 0  0.7875 0.075 0  0.8 0.075 0  0.8125 0.075 0  0.825 0.075 0  0.8375 0.075 0  0.85 0.075 0  0.8625 0.075 0  0.875 0.075 0  0.8875 0.075 0  0.9 0.075 0  0.9125 0.075 0  0.925 0.075 0  0.9375 0.075 0  0.95 0.075 0  0.9625 0.075 0  0.975 0.075 0  0.9875 0.075 0  1 0.075 0  0 0.08749999999999999 0  0.0125 0.08749999999999999 0  0.025 0.08749999999999999 0  0.0375 0.08749999999999999 0  0.05 0.08749999999999999 0  0.0625 0.08749999999999999 0  0.075 0.08749999999999999 0  0.08749999999999999 0.08749999999999999 0  0.1 0.08749999999999999 0  0.1125 0.08749999999999999 0  0.125 0.08749999999999999 0  0.1375 0.08749999999999999 0  0.15 0.08749999999999999 0  0.1625 0.08749999999999999 0  0.175 0.08749999999999999 0  0.1875 0.08749999999999999 0  0.2 0.08749999999999999 0  0.2125 0.08749999999999999 0  0.225 0.08749999999999999 0  0.2375 0.08749999999999999 0  0.25 0.08749999999999999 0  0.2625 0.08749999999999999 0  0.275 0.08749999999999999 0  0.2875 0.08749999999999999 0  0.3 0.08749999999999999 0  0.3125 0.08749999999999999 0  0.325 0.08749999999999999 0  0.3375 0.08749999999999999 0  0.35 0.08749999999999999 0  0.3625 0.08749999999999999 0  0.375 0.08749999999999999 0  0.3875 0.08749999999999999 0  0.4 0.08749999999999999 0  0.4125 0.08749999999999999 0  0.425 0.08749999999999999 0  0.4375 0.08749999999999999 0  0.45 0.08749999999999999 0  0.4625 0.08749999999999999 0  0.475 0.08749999999999999 0  0.4875 0.08749999999999999 0  0.5 0.08749999999999999 0  0.5125 0.08749999999999999 0  0.525 0.08749999999999999 0  0.5375 0.08749999999999999 0  0.55 0.08749999999999999 0
[...]
<PointData  Scalars="f_17854"> 
<DataArray  type="Float64"  Name="f_17854"  format="ascii">1.0000000000000000e+00  9.9691733373312796e-01  9.8768834059513777e-01  9.7236992039767656e-01  9.5105651629515353e-01  9.2387953251128674e-01  8.9100652418836801e-01  8.5264016435409218e-01  8.0901699437494745e-01  7.6040596560003093e-01  7.0710678118654757e-01  6.4944804833018355e-01  5.8778525229247314e-01  5.2249856471594891e-01  4.5399049973954686e-01  3.8268343236508978e-01  3.0901699437494745e-01  2.3344536385590547e-01  1.5643446504023092e-01  7.8459095727844999e-02  6.1232339957367660e-17  -7.8459095727844874e-02  -1.5643446504023104e-01  -2.3344536385590511e-01  -3.0901699437494734e-01  -3.8268343236508973e-01  -4.5399049973954669e-01  -5.2249856471594880e-01  -5.8778525229247303e-01  -6.4944804833018366e-01  -7.0710678118654746e-01  -7.6040596560003104e-01  -8.0901699437494734e-01  -8.5264016435409207e-01  -8.9100652418836779e-01  -9.2387953251128674e-01  -9.5105651629515353e-01  -9.7236992039767656e-01  -9.8768834059513766e-01  -9.9691733373312796e-01  -1.0000000000000000e+00  -9.9691733373312807e-01  -9.8768834059513777e-01  -9.7236992039767667e-01  -9.5105651629515353e-01  -9.2387953251128685e-01  -8.9100652418836812e-01  -8.5264016435409229e-01  -8.0901699437494756e-01  -7.6040596560003071e-01  -7.0710678118654768e-01  -6.4944804833018410e-01  -5.8778525229247325e-01  -5.2249856471594935e-01  -4.5399049973954692e-01  -3.8268343236509034e-01  -3.0901699437494756e-01  -2.3344536385590514e-01  -1.5643446504023101e-01  -7.8459095727844680e-02  -1.8369701987210297e-16  7.8459095727844319e-02  1.5643446504023067e-01  2.3344536385590478e-01  3.0901699437494723e-01  3.8268343236509000e-01  4.5399049973954664e-01  5.2249856471594902e-01  5.8778525229247292e-01  6.4944804833018388e-01  7.0710678118654735e-01  7.6040596560003049e-01  8.0901699437494734e-01  8.5264016435409185e-01  8.9100652418836779e-01  9.2387953251128652e-01  9.5105651629515353e-01  9.7236992039767667e-01  9.8768834059513766e-01  9.9691733373312796e-01  1.0000000000000000e+00  9.9691733373312796e-01  9.9384417635656397e-01  9.8464363280222200e-01  9.6937243403378570e-01  9.4812473187745849e-01  9.2103152547779410e-01  8.8825985345747527e-01  8.5001176407005841e-01  8.0652306950402952e-01  7.5806189202188323e-01  7.0492701089705323e-01  6.4744602034025689e-01  5.8597330977220674e-01  5.2088787889494714e-01  4.5259100103264854e-01  3.8150374914810709e-01  3.0806439978790179e-01  2.3272573096173188e-01  1.5595223061541982e-01  7.8217232908261505e-02  -4.9469297754440650e-11  -7.8217233006803832e-02  -1.5595223071276290e-01  -2.3272573105704114e-01  -3.0806439988028977e-01  -3.8150374923660713e-01  -4.5259100111618689e-01  -5.2088787897231648e-01  -5.8597330984202167e-01  -6.4744602040091193e-01  -7.0492701094666366e-01  -7.5806189205820784e-01  -8.0652306952436570e-01  -8.5001176407109169e-01  -8.8825985343505776e-01  -9.2103152542656164e-01  -9.4812473179009493e-01  -9.6937243389903061e-01  -9.8464363260429166e-01  -9.9384417588766805e-01  -9.9691733934033322e-01  -9.9384417588767282e-01  -9.8464363260429666e-01  -9.6937243389904171e-01  -9.4812473179010703e-01  -9.2103152542657241e-01  -8.8825985343506852e-01  -8.5001176407110191e-01  -8.0652306952437525e-01  -7.5806189205821595e-01  -7.0492701094667287e-01  -6.4744602040092236e-01  -5.8597330984202878e-01  -5.2088787897232425e-01  -4.5259100111619316e-01  -3.8150374923661096e-01  -3.0806439988029305e-01  -2.3272573105704342e-01  -1.5595223071276418e-01  -7.8217233006803805e-02  -4.9468742113247096e-11  7.8217232908262713e-02  1.5595223061542282e-01  2.3272573096173574e-01  3.0806439978790678e-01  3.8150374914811291e-01  4.5259100103265532e-01  5.2088787889495469e-01  5.8597330977221362e-01  6.4744602034026399e-01  7.0492701089705889e-01  7.5806189202188945e-01  8.0652306950403696e-01  8.5001176407006729e-01  8.8825985345748393e-01  9.2103152547780220e-01  9.4812473187746305e-01  9.6937243403378814e-01  9.8464363280222522e-01  9.9384417635656530e-01  9.9691733373312796e-01  9.8768834059513777e-01  9.8464363280222267e-01  9.7552826357614120e-01  9.6039843836471783e-01  9.3934743744052496e-01  9.1250504721941583e-01  8.8003675995793251e-01  8.4214275344038758e-01  7.9905665681557392e-01  7.5104411019497819e-01  6.9840112689294453e-01  6.4145226840602731e-01  5.8054864338336265e-01  5.1606574292503260e-01  4.4840112555453465e-01  3.7797196613825595e-01  3.0521248386367728e-01  2.3057126513367485e-01  1.5450849788216658e-01  7.7493134362461205e-02  -9.9333210153979425e-11  -7.7493134560345373e-02  -1.5450849807768371e-01  -2.3057126532517810e-01  -3.0521248404941453e-01  -3.7797196631632096e-01  -4.4840112572281499e-01  -5.1606574308114728e-01  -5.8054864352458935e-01  -6.4145226852921189e-01  -6.9840112699439305e-01  -7.5104411027031015e-01  -7.9905665685952443e-01  -8.4214275344654543e-01  -8.8003675991835228e-01  -9.1250504712402447e-01  -9.3934743727615344e-01  -9.6039843811346293e-01  -9.7552826321562702e-01  -9.8464363217971640e-01  -9.8768834572490616e-01  -9.8464363217972317e-01  -9.7552826321563757e-01  -9.6039843811347836e-01  -9.3934743727617354e-01  -9.1250504712404357e-01  -8.8003675991837083e-01  -8.4214275344656320e-01  -7.9905665685954119e-01  -7.5104411027032525e-01  -6.9840112699440937e-01  -6.4145226852922832e-01  -5.8054864352460267e-01  -5.1606574308116038e-01  -4.4840112572282609e-01  -3.7797196631632923e-01  -3.0521248404942042e-01  -2.3057126532518193e-01  -1.5450849807768618e-01  -7.7493134560345844e-02  -9.9332118129097900e-11  7.7493134362464092e-02  1.5450849788217222e-01  2.3057126513368201e-01  3.0521248386368627e-01  3.7797196613826639e-01  4.4840112555454742e-01  5.1606574292504648e-01  5.8054864338337653e-01  6.4145226840604064e-01  6.9840112689295653e-01  7.5104411019499151e-01  7.9905665681558802e-01  8.4214275344040168e-01  8.8003675995794595e-01  9.1250504721942793e-01  9.3934743744053473e-01  9.6039843836472394e-01  9.7552826357614686e-01  9.8464363280222478e-01  9.8768834059513777e-01  9.7236992039767656e-01  9.6937243403378448e-01  9.6039843836471628e-01  9.4550326712103061e-01  9.2477875385216790e-01  8.9835267207031566e-01  8.6638794735184133e-01  8.2908165284989155e-01  7.8666379427255484e-01  7.3939589182092935e-01  6.8756936782991218e-01  6.3150375005247295e-01  5.7154470166470350e-01  5.0806189013732572e-01  4.4144670811276621e-01  3.7210986033931848e-01  3.0047883153977667e-01  2.2699525082594604e-01  1.5211216890829260e-01  7.6291264887649882e-02  -1.4997606331916153e-10  -7.6291265186454030e-02  -1.5211216920362350e-01  -2.2699525111538707e-01  -3.0047883182075952e-01  -3.7210986060905027e-01  -4.4144670836815586e-01  -5.0806189037489269e-01  -5.7154470188047490e-01  -6.3150375024185923e-01  -6.8756936798755286e-01  -7.3939589194048838e-01  -7.8666379434646860e-01  -8.2908165286902302e-01  -8.6638794730501500e-01  -8.9835267194367219e-01  -9.2477875362826589e-01  -9.4550326677766372e-01  -9.6039843787670887e-01  -9.6937243324243116e-01  -9.7236992520925647e-01  -9.6937243324244071e-01  -9.6039843787672241e-01  -9.4550326677768437e-01  -9.2477875362829087e-01  -8.9835267194369850e-01  -8.6638794730504187e-01  -8.2908165286904600e-01  -7.8666379434649114e-01  -7.3939589194050948e-01  -6.8756936798757451e-01  -6.3150375024188321e-01  -5.7154470188049433e-01  -5.0806189037491067e-01  -4.4144670836817018e-01  -3.7210986060906148e-01  -3.0047883182076807e-01  -2.2699525111539284e-01  -1.5211216920362697e-01  -7.6291265186454876e-02  -1.4997452099614024e-10  7.6291264887654003e-02  1.5211216890830073e-01  2.2699525082595579e-01  3.0047883153978927e-01  3.7210986033933280e-01  4.4144670811278303e-01  5.0806189013734515e-01  5.7154470166472138e-01  6.3150375005249082e-01  6.8756936782993017e-01  7.3939589182094756e-01  7.8666379427257360e-01  8.2908165284990987e-01  8.6638794735185887e-01  8.9835267207033154e-01  9.2477875385218056e-01  9.4550326712104082e-01  9.6039843836472349e-01  9.6937243403378837e-01  9.7236992039767656e-01  9.5105651629515342e-01  9.4812473187745994e-01  9.3934743744052585e-01  9.2477875385216834e-01  9.0450850175855768e-01  8.7866165400035134e-01  8.4739756498339347e-01  8.1090898820841262e-01  7.6942088788137042e-01  7.2318905193414895e-01  6.7249851500673130e-01  6.1766180111374080e-01  5.5901699682987305e-01  4.9692566687366596e-01  4.3177062494072704e-01  3.6395357352995350e-01  2.9389262731402471e-01  2.2201973532337727e-01  1.4877801783677685e-01  7.4619034397432282e-02  -2.0176212849470485e-10  -7.4619034799472253e-02  -1.4877801823432629e-01  -2.2201973571331421e-01  -2.9389262769303104e-01  -3.6395357389442767e-01  -4.3177062528668564e-01  -4.9692566719663511e-01  -5.5901699712475494e-01  -6.1766180137466387e-01  -6.7249851522685866e-01  -7.2318905210544626e-01  -7.6942088799430675e-01  -8.1090898825158575e-01  -8.4739756494303675e-01  -8.7866165385970652e-01  -9.0450850149708339e-01  -9.2477875344455518e-01  -9.3934743685833388e-01  -9.4812473096060446e-01  -9.5105652081448477e-01  -9.4812473096061212e-01  -9.3934743685834909e-01  -9.2477875344457749e-01  -9.0450850149711093e-01  -8.7866165385973749e-01  -8.4739756494306751e-01  -8.1090898825161351e-01  -7.6942088799433428e-01  -7.2318905210547124e-01  -6.7249851522688475e-01  -6.1766180137468996e-01  -5.5901699712477770e-01  -4.9692566719665660e-01  -4.3177062528670385e-01  -3.6395357389444238e-01  -2.9389262769304225e-01  -2.2201973571332154e-01  -1.4877801823433090e-01  -7.4619034799473336e-02  -2.0176029659208846e-10  7.4619034397437181e-02  1.4877801783678632e-01  2.2201973532338920e-01  2.9389262731403965e-01  3.6395357352997088e-01  4.3177062494074658e-01  4.9692566687368867e-01  5.5901699682989558e-01  6.1766180111376334e-01  6.7249851500675351e-01  7.2318905193417105e-01  7.6942088788139140e-01  8.1090898820843349e-01  8.4739756498341390e-01  8.7866165400037088e-01  9.0450850175857400e-01  9.2477875385218034e-01  9.3934743744053406e-01  9.4812473187746338e-01  9.5105651629515353e-01  9.2387953251128674e-01  9.2103152547779854e-01  9.1250504721942005e-01  8.9835267207031921e-01  8.7866165400035345e-01  8.5355339467971236e-01  8.2318269487084983e-01  7.8773680003278512e-01  7.4743424589037699e-01  7.0252351108878086e-01  6.5328148523983853e-01  6.0001176180544191e-01  5.4304276634280657e-01  4.8272573165162319e-01  4.1943253230699962e-01  3.5355339192899782e-01  2.8549447732422545e-01  2.1567539433237953e-01  1.4452660081668861e-01  7.2486752748027614e-02  -2.5502619321960727e-10  -7.2486753256297207e-02  -1.4452660131956505e-01  -2.1567539482611506e-01  -2.8549447780484055e-01  -3.5355339239217781e-01  -4.1943253274798098e-01  -4.8272573206506514e-01  -5.4304276672264018e-01  -6.0001176214469887e-01  -6.5328148553043930e-01  -7.0252351132128454e-01  -7.4743424605366171e-01  -7.8773680011366198e-01  -8.2318269485358841e-01  -8.5355339454545331e-01  -8.7866165372640026e-01  -8.9835267162926002e-01  -9.1250504658075027e-01  -9.2103152448316195e-01  -9.2387953676489243e-01  -9.2103152448316972e-01  -9.1250504658076581e-01  -8.9835267162928356e-01  -8.7866165372642857e-01  -8.5355339454548596e-01  -8.2318269485362272e-01  -7.8773680011369263e-01  -7.4743424605369169e-01  -7.0252351132131297e-01  -6.5328148553046839e-01  -6.0001176214472762e-01  -5.4304276672266605e-01  -4.8272573206508917e-01  -4.1943253274800163e-01  -3.5355339239219480e-01  -2.8549447780485354e-01  -2.1567539482612391e-01  -1.4452660131957035e-01  -7.2486753256298705e-02  -2.5502431523901250e-10  7.2486752748032957e-02  1.4452660081669838e-01  2.1567539433239261e-01  2.8549447732424188e-01  3.5355339192901664e-01  4.1943253230702116e-01  4.8272573165164767e-01  5.4304276634283188e-01  6.0001176180546711e-01  6.5328148523986163e-01  7.0252351108880551e-01  7.4743424589040064e-01  7.8773680003280733e-01  8.2318269487087281e-01  8.5355339467973446e-01  8.7866165400037255e-01  8.9835267207033376e-01  9.1250504721942927e-01  9.2103152547780276e-01  9.2387953251128674e-01  8.9100652418836801e-01  8.8825985345747904e-01  8.8003675995793706e-01  8.6638794735184466e-01  8.4739756498339613e-01  8.2318269487084994e-01  7.9389262973520458e-01  7.5970795256335233e-01  7.2083942325375183e-01  6.7752667921146048e-01  6.3003675790374358e-01  5.7866245048519771e-01  5.2372049664284948e-01  4.6554963179059172e-01  4.0450849865266819e-01  3.4097343611196856e-01  2.7533615895564284e-01  2.0800134282314869e-01  1.3938412924634344e-01  6.9907566163872850e-02  -3.1006558696270611e-10  -6.9907566781967481e-02  -1.3938412985827800e-01  -2.0800134342464482e-01  -2.7533615954216212e-01  -3.4097343667859653e-01  -4.0450849919398840e-01  -4.6554963230054408e-01  -5.2372049711456792e-01  -5.7866245091082591e-01  -6.3003675827421268e-01  -6.7752667951623013e-01  -7.2083942348049157e-01  -7.5970795269756553e-01  -7.9389262975978225e-01  -8.2318269476553696e-01  -8.4739756472416727e-01  -8.6638794691014132e-01  -8.8003675930236080e-01  -8.8825985243374739e-01  -8.9100652820069970e-01  -8.8825985243375571e-01  -8.8003675930237579e-01  -8.6638794691016507e-01  -8.4739756472419536e-01  -8.2318269476556982e-01  -7.9389262975981667e-01  -7.5970795269759861e-01  -7.2083942348052232e-01  -6.7752667951626000e-01  -6.3003675827424299e-01  -5.7866245091085544e-01  -5.2372049711459501e-01  -4.6554963230056939e-01  -4.0450849919400977e-01  -3.4097343667861446e-01  -2.7533615954217622e-01  -2.0800134342465462e-01  -1.3938412985828366e-01  -6.9907566781969202e-02  -3.1006383958365622e-10  6.9907566163878054e-02  1.3938412924635318e-01  2.0800134282316160e-01  2.7533615895565922e-01  3.4097343611198755e-01  4.0450849865268929e-01  4.6554963179061570e-01  5.2372049664287335e-01  5.7866245048522214e-01  6.3003675790376734e-01  6.7752667921148346e-01  7.2083942325377337e-01  7.5970795256337276e-01  7.9389262973522623e-01  8.2318269487087203e-01  8.4739756498341501e-01  8.6638794735185976e-01  8.8003675995794695e-01  8.8825985345748337e-01  8.9100652418836790e-01  8.5264016435409218e-01  8.5001176407006152e-01  8.4214275344039247e-01  8.2908165284989555e-01  8.1090898820841661e-01  7.8773680003278568e-01  7.5970795256335166e-01  7.2699525296079803e-01  6.8980038589240178e-01  6.4835267007891628e-01  6.0290764446831935e-01  5.5374549275314422e-01  5.0116931594479619e-01  4.4550326365495402e-01  3.8709053560538625e-01  3.2629126568749595e-01  2.6348030161709091e-01  1.9904489387354005e-01  1.3338230817176910e-01  6.6897376187006724e-02  -3.6713317865591076e-10  -6.6897376919033205e-02  -1.3338230889702135e-01  -1.9904489458731597e-01  -2.6348030231440772e-01  -3.2629126636296463e-01  -3.8709053625307799e-01  -4.4550326426824982e-01  -5.0116931651621954e-01  -5.5374549327417044e-01  -6.0290764492914828e-01  -6.4835267046822298e-01  -6.8980038619701978e-01  -7.2699525316537095e-01  -7.5970795264992441e-01  -7.8773679998032686e-01  -8.1090898799228484e-01  -8.2908165244119802e-01  -8.4214275280773543e-01  -8.5001176306489423e-01  -8.5264016814773802e-01  -8.5001176306490245e-01  -8.4214275280774931e-01  -8.2908165244121990e-01  -8.1090898799231081e-01  -7.8773679998035728e-01  -7.5970795264995850e-01  -7.2699525316540414e-01  -6.8980038619705031e-01  -6.4835267046825229e-01  -6.0290764492917626e-01  -5.5374549327419798e-01  -5.0116931651624563e-01  -4.4550326426827463e-01  -3.8709053625309936e-01  -3.2629126636298289e-01  -2.6348030231442221e-01  -1.9904489458732605e-01  -1.3338230889702729e-01  -6.6897376919035134e-02  -3.6713161362664207e-10  6.6897376187011692e-02  1.3338230817177807e-01  1.9904489387355195e-01  2.6348030161710662e-01  3.2629126568751365e-01  3.8709053560540679e-01  4.4550326365497583e-01  5.0116931594481773e-01  5.5374549275316731e-01  6.0290764446833944e-01  6.4835267007893771e-01  6.8980038589242088e-01  7.2699525296081691e-01  7.5970795256337020e-01  7.8773680003280344e-01  8.1090898820843149e-01  8.2908165284990798e-01  8.4214275344040246e-01  8.5001176407006562e-01  8.5264016435409218e-01  8.0901699437494745e-01  8.0652306950403296e-01  7.9905665681557891e-01  7.8666379427256006e-01  7.6942088788137519e-01  7.4743424589037843e-01  7.2083942325375039e-01  6.8980038589240000e-01  6.5450849978943970e-01  6.1518135115520578e-01  5.7206140493585345e-01  5.2541450993627936e-01  4.7552825977378504e-01  4.2271021976773732e-01  3.6728603069706239e-01  3.0959740111651518e-01  2.5000000060978150e-01  1.8886126696819483e-01  1.2655814081454478e-01  6.3474741638773272e-02  -4.2643141758938111e-10  -6.3474742489247865e-02  -1.2655814165779702e-01  -1.8886126779921467e-01  -2.5000000142326390e-01  -3.0959740190673046e-01  -3.6728603145771704e-01  -4.2271022049182139e-01  -4.7552826045340313e-01  -5.2541451056245791e-01  -5.7206140549832518e-01  -6.1518135164215759e-01  -6.5450850018722617e-01  -6.8980038618521611e-01  -7.2083942342326335e-01  -7.4743424591531993e-01  -7.6942088773708195e-01  -7.8666379393044994e-01  -7.9905665624491384e-01  -8.0652306856327449e-01  -8.0901699797076643e-01  -8.0652306856328138e-01  -7.9905665624492572e-01  -7.8666379393046937e-01  -7.6942088773710815e-01  -7.4743424591534924e-01  -7.2083942342329577e-01  -6.8980038618524642e-01  -6.5450850018725548e-01  -6.1518135164218513e-01  -5.7206140549835283e-01  -5.2541451056248589e-01  -4.7552826045342894e-01  -4.2271022049184581e-01  -3.6728603145773753e-01  -3.0959740190674800e-01  -2.5000000142327761e-01  -1.8886126779922427e-01  -1.2655814165780271e-01  -6.3474742489249877e-02  -4.2643019450204599e-10  6.3474741638777699e-02  1.2655814081455319e-01  1.8886126696820638e-01  2.5000000060979638e-01  3.0959740111653256e-01  3.6728603069708216e-01  4.2271021976775874e-01  4.7552825977380619e-01  5.2541450993630068e-01  5.7206140493587321e-01  6.1518135115522576e-01  6.5450849978946113e-01  6.8980038589242043e-01  7.2083942325376904e-01  7.4743424589039476e-01  7.6942088788138763e-01  7.8666379427257205e-01  7.9905665681558702e-01  8.0652306950403596e-01  8.0901699437494745e-01  7.6040596560003093e-01  7.5806189202188601e-01  7.5104411019498218e-01  7.3939589182093368e-01  7.2318905193415417e-01  7.0252351108878208e-01  6.7752667921145970e-01  6.4835267007891517e-01  6.1518135115520434e-01  5.7821723464894770e-01  5.3768821662750188e-01  4.9384417196188135e-01  4.4695541376504128e-01  3.9731102682160702e-01  3.4521708528401024e-01  2.9099476562352272e-01  2.3497836647048442e-01  1.7751324755205677e-01  1.1895370043463636e-01  5.9660764198518582e-02  -4.8810834503631639e-10  -5.9660765172256179e-02  -1.1895370140087751e-01  -1.7751324850560440e-01  -2.3497836740583922e-01  -2.9099476653475143e-01  -3.4521708616460811e-01  -3.9731102766434351e-01  -4.4695541456179139e-01  -4.9384417270344194e-01  -5.3768821730338412e-01  -5.7821723524713797e-01  -6.1518135166190147e-01  -6.4835267047823431e-01  -6.7752667948510870e-01  -7.0252351121570722e-01  -7.2318905189016025e-01  -7.3939589157824859e-01  -7.5104410972399915e-01  -7.5806189118913136e-01  -7.6040596901727409e-01  -7.5806189118913658e-01  -7.5104410972400970e-01  -7.3939589157826613e-01  -7.2318905189018223e-01  -7.0252351121573497e-01  -6.7752667948513723e-01  -6.4835267047826162e-01  -6.1518135166192889e-01  -5.7821723524716384e-01  -5.3768821730341010e-01  -4.9384417270346875e-01  -4.4695541456181542e-01  -3.9731102766436616e-01  -3.4521708616462782e-01  -2.9099476653476808e-01  -2.3497836740585218e-01  -1.7751324850561356e-01  -1.1895370140088317e-01  -5.9660765172258289e-02  -4.8810752877021481e-10  5.9660764198522342e-02  1.1895370043464414e-01  1.7751324755206746e-01  2.3497836647049844e-01  2.9099476562353882e-01  3.4521708528402861e-01  3.9731102682162778e-01  4.4695541376506220e-01  4.9384417196190267e-01  5.3768821662752242e-01  5.7821723464896857e-01  6.1518135115522532e-01  6.4835267007893438e-01  6.7752667921147791e-01  7.0252351108879774e-01  7.2318905193416561e-01  7.3939589182094445e-01  7.5104411019499062e-01  7.5806189202188945e-01  7.6040596560003093e-01  7.0710678118654757e-01  7.0492701089705434e-01  6.9840112689