<?xml version="1.0"?>
<VTKFile type="UnstructuredGrid"  version="0.1"  >
<UnstructuredGrid>
<Piece  NumberOfPoints="25921" NumberOfCells="51200">
<Points>
<DataArray  type="Float64"  NumberOfComponents="3"  format="ascii">0 0 0  0.00625 0 0  0.0125 0 0  0.01875 0 0  0.025 0 0  0.03125 0 0  0.0375 0 0  0.04375 0 0  0.05 0 0  0.05625 0 0  0.0625 0 0  0.06875000000000001 0 0  0.075 0 0  0.08125 0 0  0.08749999999999999 0 0  0.09375 0 0  0.1 0 0  0.10625 0 0  0.1125 0 0  0.11875 0 0  0.125 0 0  0.13125 0 0  0.1375 0 0  0.14375 0 0  0.15 0 0  0.15625 0 0  0.1625 0 0  0.16875 0 0  0.175 0 0  0.18125 0 0  0.1875 0 0  0.19375 0 0  0.2 0 0  0.20625 0 0  0.2125 0 0  0.21875 0 0  0.225 0 0  0.23125 0 0  0.2375 0 0  0.24375 0 0  0.25 0 0  0.25625 0 0  0.2625 0 0  0.26875 0 0  0.275 0 0  0.28125 0 0  0.2875 0 0  0.29375 0 0  0.3 0 0  0.30625 0 0  0.3125 0 0  0.31875 0 0  0.325 0 0  0.33125 0 0  0.3375 0 0  0.34375 0 0  0.35 0 0  0.35625 0 0  0.3625 0 0  0.36875 0 0  0.375 0 0  0.38125 0 0  0.3875 0 0  0.39375 0 0  0.4 0 0  0.40625 0 0  0.4125 0 0  0.41875 0 0  0.425 0 0  0.43125 0 0  0.4375 0 0  0.44375 0 0  0.45 0 0  0.45625 0 0  0.4625 0 0  0.46875 0 0  0.475 0 0  0.48125 0 0  0.4875 0 0  0.49375 0 0  0.5 0 0  0.50625 0 0  0.5125 0 0  0.51875 0 0  0.525 0 0  0.53125 0 0  0.5375 0 0  0.54375 0 0  0.55 0 0  0.55625 0 0  0.5625 0 0  0.56875 0 0  0.575 0 0  0.58125 0 0  0.5875 0 0  0.59375 0 0  0.6 0 0  0.60625 0 0  0.6125 0 0  0.61875 0 0  0.625 0 0  0.63125 0 0  0.6375 0 0  0.64375 0 0  0.65 0 0  0.65625 0 0  0.6625 0 0  0.66875 0 0  0.675 0 0  0.68125 0 0  0.6875 0 0  0.69375 0 0  0.7 0 0  0.70625 0 0  0.7125 0 0  0.71875 0 0  0.725 0 0  0.73125 0 0  0.7375 0 0  0.74375 0 0  0.75 0 0  0.75625 0 0  0.7625 0 0  0.76875 0 0  0.775 0 0  0.78125 0 0  0.7875 0 0  0.79375 0 0  0.8 0 0  0.80625 0 0  0.8125 0 0  0.81875 0 0  0.825 0 0  0.83125 0 0  0.8375 0 0  0.84375 0 0  0.85 0 0  0.85625 0 0  0.8625 0 0  0.86875 0 0  0.875 0 0  0.88125 0 0  0.8875 0 0  0.89375 0 0  0.9 0 0  0.90625 0 0  0.9125 0 0  0.91875 0 0  0.925 0 0  0.93125 0 0  0.9375 0 0  0.94375 0 0  0.95 0 0  0.95625 0 0  0.9625 0 0  0.96875 0 0  0.975 0 0  0.98125 0 0  0.9875 0 0  0.99375 0 0  1 0 0  0 0.00625 0  0.00625 0.00625 0  0.0125 0.00625 0  0.01875 0.00625 0  0.025 0.00625 0  0.03125 0.00625 0  0.0375 0.00625 0  0.04375 0.00625 0  0.05 0.00625 0  0.05625 0.00625 0  0.0625 0.00625 0  0.06875000000000001 0.00625 0  0.075 0.00625 0  0.08125 0.00625 0  0.08749999999999999 0.00625 0  0.09375 0.00625 0  0.1 0.00625 0  0.10625 0.00625 0  0.1125 0.00625 0  0.11875 0.00625 0  0.125 0.00625 0  0.13125 0.00625 0  0.1375 0.00625 0  0.14375 0.00625 0  0.15 0.00625 0  0.15625 0.00625 0  0.1625 0.00625 0  0.16875 0.00625 0  0.175 0.00625 0  0.18125 0.00625 0  0.1875 0.00625 0  0.19375 0.00625 0  0.2 0.00625 0  0.20625 0.00625 0  0.2125 0.00625 0  0.21875 0.00625 0  0.225 0.00625 0  0.23125 0.00625 0  0.2375 0.00625 0  0.24375 0.00625 0  0.25 0.00625 0  0.25625 0.00625 0  0.2625 0.00625 0  0.26875 0.00625 0  0.275 0.00625 0  0.28125 0.00625 0  0.2875 0.00625 0  0.29375 0.00625 0  0.3 0.00625 0  0.30625 0.00625 0  0.3125 0.00625 0  0.31875 0.00625 0  0.325 0.00625 0  0.33125 0.00625 0  0.3375 0.00625 0  0.34375 0.00625 0  0.35 0.00625 0  0.35625 0.00625 0  0.3625 0.00625 0  0.36875 0.00625 0  0.375 0.00625 0  0.38125 0.00625 0  0.3875 0.00625 0  0.39375 0.00625 0  0.4 0.00625 0  0.40625 0.00625 0  0.4125 0.00625 0  0.41875 0.00625 0  0.425 0.00625 0  0.43125 0.00625 0  0.4375 0.00625 0  0.44375 0.00625 0  0.45 0.00625 0  0.45625 0.00625 0  0.4625 0.00625 0  0.46875 0.00625 0  0.475 0.00625 0  0.48125 0.00625 0  0.4875 0.00625 0  0.49375 0.00625 0  0.5 0.00625 0  0.50625 0.00625 0  0.5125 0.00625 0  0.51875 0.00625 0  0.525 0.00625 0  0.53125 0.00625 0  0.5375 0.00625 0  0.54375 0.00625 0  0.55 0.00625 0  0.55625 0.00625 0  0.5625 0.00625 0  0.56875 0.00625 0  0.575 0.00625 0  0.58125 0.00625 0  0.5875 0.00625 0  0.59375 0.00625 0  0.6 0.00625 0  0.60625 0.00625 0  0.6125 0.00625 0  0.61875 0.00625 0  0.625 0.00625 0  0.63125 0.00625 0  0.6375 0.00625 0  0.64375 0.00625 0  0.65 0.00625 0  0.65625 0.00625 0  0.6625 0.00625 0  0.66875 0.00625 0  0.675 0.00625 0  0.68125 0.00625 0  0.6875 0.00625 0  0.69375 0.00625 0  0.7 0.00625 0  0.70625 0.00625 0  0.7125 0.00625 0  0.71875 0.00625 0  0.725 0.00625 0  0.73125 0.00625 0  0.7375 0.00625 0  0.74375 0.00625 0  0.75 0.00625 0  0.75625 0.00625 0  0.7625 0.00625 0  0.76875 0.00625 0  0.775 0.00625 0  0.78125 0.00625 0  0.7875 0.00625 0  0.79375 0.00625 0  0.8 0.00625 0  0.80625 0.00625 0  0.8125 0.00625 0  0.81875 0.00625 0  0.825 0.00625 0  0.83125 0.00625 0  0.8375 0.00625 0  0.84375 0.00625 0  0.85 0.00625 0  0.85625 0.00625 0  0.8625 0.00625 0  0.86875 0.00625 0  0.875 0.00625 0  0.88125 0.00625 0  0.8875 0.00625 0  0.89375 0.00625 0  0.9 0.00625 0  0.90625 0.00625 0  0.9125 0.00625 0  0.91875 0.00625 0  0.925 0.00625 0  0.93125 0.00625 0  0.9375 0.00625 0  0.94375 0.00625 0  0.95 0.00625 0  0.95625 0.00625 0  0.9625 0.00625 0  0.96875 0.00625 0  0.975 0.00625 0  0.98125 0.00625 0  0.9875 0.00625 0  0.99375 0.00625 0  1 0.00625 0  0 0.0125 0  0.00625 0.0125 0  0.0125 0.0125 0  0.01875 0.0125 0  0.025 0.0125 0  0.03125 0.0125 0  0.0375 0.0125 0  0.04375 0.0125 0  0.05 0.0125 0  0.05625 0.0125 0  0.0625 0.0125 0  0.06875000000000001 0.0125 0  0.075 0.0125 0  0.08125 0.0125 0  0.08749999999999999 0.0125 0  0.09375 0.0125 0  0.1 0.0125 0  0.10625 0.0125 0  0.1125 0.0125 0  0.11875 0.0125 0  0.125 0.0125 0  0.13125 0.0125 0  0.1375 0.0125 0  0.14375 0.0125 0  0.15 0.0125 0  0.15625 0.0125 0  0.1625 0.0125 0  0.16875 0.0125 0  0.175 0.0125 0  0.18125 0.0125 0  0.1875 0.0125 0  0.19375 0.0125 0  0.2 0.0125 0  0.20625 0.0125 0  0.2125 0.0125 0  0.21875 0.0125 0  0.225 0.0125 0  0.23125 0.0125 0  0.2375 0.0125 0  0.24375 0.0125 0  0.25 0.0125 0  0.25625 0.0125 0  0.2625 0.0125 0  0.26875 0.0125 0  0.275 0.0125 0  0.28125 0.0125 0  0.2875 0.0125 0  0.29375 0.0125 0  0.3 0.0125 0  0.30625 0.0125 0  0.3125 0.0125 0  0.31875 0.0125 0  0.325 0.0125 0  0.33125 0.0125 0  0.3375 0.0125 0  0.34375 0.0125 0  0.35 0.0125 0  0.35625 0.0125 0  0.3625 0.0125 0  0.36875 0.0125 0  0.375 0.0125 0  0.38125 0.0125 0  0.3875 0.0125 0  0.39375 0.0125 0  0.4 0.0125 0  0.40625 0.0125 0  0.4125 0.0125 0  0.41875 0.0125 0  0.425 0.0125 0  0.43125 0.0125 0  0.4375 0.0125 0  0.44375 0.0125 0  0.45 0.0125 0  0.45625 0.0125 0  0.4625 0.0125 0  0.46875 0.0125 0  0.475 0.0125 0  0.48125 0.0125 0  0.4875 0.0125 0  0.49375 0.0125 0  0.5 0.0125 0  0.50625 0.0125 0  0.5125 0.0125 0  0.51875 0.0125 0  0.525 0.0125 0  0.53125 0.0125 0  0.5375 0.0125 0  0.54375 0.0125 0  0.55 0.0125 0  0.55625 0.0125 0  0.5625 0.0125 0  0.56875 0.0125 0  0.575 0.0125 0  0.58125 0.0125 0  0.5875 0.0125 0  0.59375 0.0125 0  0.6 0.0125 0  0.60625 0.0125 0  0.6125 0.0125 0  0.61875 0.0125 0  0.625 0.0125 0  0.63125 0.0125 0  0.6375 0.0125 0  0.64375 0.0125 0  0.65 0.0125 0  0.65625 0.0125 0  0.6625 0.0125 0  0.66875 0.0125 0  0.675 0.0125 0  0.68125 0.0125 0  0.6875 0.0125 0  0.69375 0.0125 0  0.7 0.0125 0  0.70625 0.0125 0  0.7125 0.0125 0  0.71875 0.0125 0  0.725 0.0125 0  0.73125 0.0125 0  0.7375 0.0125 0  0.74375 0.0125 0  0.75 0.0125 0  0.75625 0.0125 0  0.7625 0.0125 0  0.76875 0.0125 0  0.775 0.0125 0  0.78125 0.0125 0  0.7875 0.0125 0  0.79375 0.0125 0  0.8 0.0125 0  0.80625 0.0125 0  0.8125 0.0125 0  0.81875 0.0125 0  0.825 0.0125 0  0.83125 0.0125 0  0.8375 0.0125 0  0.84375 0.0125 0  0.85 0.0125 0  0.85625 0.0125 0  0.8625 0.0125 0  0.86875 0.0125 0  0.875 0.0125 0  0.88125 0.0125 0  0.8875 0.0125 0  0.89375 0.0125 0  0.9 0.0125 0  0.90625 0.0125 0  0.9125 0.0125 0  0.91875 0.0125 0  0.925 0.0125 0  0.93125 0.0125 0  0.9375 0.0125 0  0.94375 0.0125 0  0.95 0.0125 0  0.95625 0.0125 0  0.9625 0.0125 0  0.96875 0.0125 0  0.975 0.0125 0  0.98125 0.0125 0  0.9875 0.0125 0  0.99375 0.0125 0  1 0.0125 0  0 0.01875 0  0.00625 0.01875 0  0.0125 0.01875 0  0.01875 0.01875 0  0.025 0.01875 0  0.03125 0.01875 0  0.0375 0.01875 0  0.04375 0.01875 0  0.05 0.01875 0  0.05625 0.01875 0  0.0625 0.01875 0  0.06875000000000001 0.01875 0  0.075 0.01875 0  0.08125 0.01875 0  0.08749999999999999 0.01875 0  0.09375 0.01875 0  0.1 0.01875 0  0.10625 0.01875 0  0.1125 0.01875 0  0.11875 0.01875 0  0.125 0.01875 0  0.13125 0.01875 0  0.1375 0.01875 0  0.14375 0.01875 0  0.15 0.01875 0  0.15625 0.01875 0  0.1625 0.01875 0  0.16875 0.01875 0  0.175 0.01875 0  0.18125 0.01875 0  0.1875 0.01875 0  0.19375 0.01875 0  0.2 0.01875 0  0.20625 0.01875 0  0.2125 0.01875 0  0.21875 0.01875 0  0.225 0.01875 0  0.23125 0.01875 0  0.2375 0.01875 0  0.24375 0.01875 0  0.25 0.01875 0  0.25625 0.01875 0  0.2625 0.01875 0  0.26875 0.01875 0  0.275 0.01875 0  0.28125 0.01875 0  0.2875 0.01875 0  0.29375 0.01875 0  0.3 0.01875 0  0.30625 0.01875 0  0.3125 0.01875 0  0.31875 0.01875 0  0.325 0.01875 0  0.33125 0.01875 0  0.3375 0.01875 0  0.34375 0.01875 0  0.35 0.01875 0  0.35625 0.01875 0  0.3625 0.01875 0  0.36875 0.01875 0  0.375 0.01875 0  0.38125 0.01875 0  0.3875 0.01875 0  0.39375 0.01875 0  0.4 0.01875 0  0.40625 0.01875 0  0.4125 0.01875 0  0.41875 0.01875 0  0.425 0.01875 0  0.43125 0.01875 0  0.4375 0.01875 0  0.44375 0.01875 0  0.45 0.01875 0  0.45625 0.01875 0  0.4625 0.01875 0  0.46875 0.01875 0  0.475 0.01875 0  0.48125 0.01875 0  0.4875 0.01875 0  0.49375 0.01875 0  0.5 0.01875 0  0.50625 0.01875 0  0.5125 0.01875 0  0.51875 0.01875 0  0.525 0.01875 0  0.53125 0.01875 0  0.5375 0.01875 0  0.54375 0.01875 0  0.55 0.01875 0  0.55625 0.01875 0  0.5625 0.01875 0  0.56875 0.01875 0  0.575 0.01875 0  0.58125 0.01875 0  0.5875 0.01875 0  0.59375 0.01875 0  0.6 0.01875 0  0.60625 0.01875 0  0.6125 0.01875 0  0.61875 0.01875 0  0.625 0.01875 0  0.63125 0.01875 0  0.6375 0.01875 0  0.64375 0.01875 0  0.65 0.01875 0  0.65625 0.01875 0  0.6625 0.01875 0  0.66875 0.01875 0  0.675 0.01875 0  0.68125 0.01875 0  0.6875 0.01875 0  0.69375 0.01875 0  0.7 0.01875 0  0.70625 0.01875 0  0.7125 0.01875 0  0.71875 0.01875 0  0.725 0.01
[...]
<PointData  Scalars="f_19476"> 
<DataArray  type="Float64"  Name="f_19476"  format="ascii">1.0000000000000000e+00  9.9922903624072290e-01  9.9691733373312796e-01  9.9306845695492629e-01  9.8768834059513777e-01  9.8078528040323043e-01  9.7236992039767656e-01  9.6245523645364728e-01  9.5105651629515353e-01  9.3819133592248416e-01  9.2387953251128674e-01  9.0814317382508125e-01  8.9100652418836790e-01  8.7249600707279718e-01  8.5264016435409218e-01  8.3146961230254524e-01  8.0901699437494745e-01  7.8531693088074495e-01  7.6040596560003093e-01  7.3432250943568556e-01  7.0710678118654757e-01  6.7880074553294178e-01  6.4944804833018355e-01  6.1909394930983408e-01  5.8778525229247314e-01  5.5557023301960229e-01  5.2249856471594891e-01  4.8862124149695496e-01  4.5399049973954680e-01  4.1865973753742813e-01  3.8268343236508984e-01  3.4611705707749302e-01  3.0901699437494745e-01  2.7144044986507432e-01  2.3344536385590547e-01  1.9509032201612833e-01  1.5643446504023092e-01  1.1753739745783770e-01  7.8459095727844999e-02  3.9259815759068666e-02  6.1232339957367660e-17  -3.9259815759068326e-02  -7.8459095727844874e-02  -1.1753739745783758e-01  -1.5643446504023104e-01  -1.9509032201612819e-01  -2.3344536385590511e-01  -2.7144044986507421e-01  -3.0901699437494734e-01  -3.4611705707749313e-01  -3.8268343236508973e-01  -4.1865973753742780e-01  -4.5399049973954669e-01  -4.8862124149695468e-01  -5.2249856471594880e-01  -5.5557023301960196e-01  -5.8778525229247303e-01  -6.1909394930983408e-01  -6.4944804833018355e-01  -6.7880074553294178e-01  -7.0710678118654746e-01  -7.3432250943568533e-01  -7.6040596560003093e-01  -7.8531693088074472e-01  -8.0901699437494734e-01  -8.3146961230254535e-01  -8.5264016435409218e-01  -8.7249600707279718e-01  -8.9100652418836779e-01  -9.0814317382508136e-01  -9.2387953251128674e-01  -9.3819133592248405e-01  -9.5105651629515353e-01  -9.6245523645364717e-01  -9.7236992039767656e-01  -9.8078528040323043e-01  -9.8768834059513766e-01  -9.9306845695492629e-01  -9.9691733373312796e-01  -9.9922903624072290e-01  -1.0000000000000000e+00  -9.9922903624072290e-01  -9.9691733373312807e-01  -9.9306845695492629e-01  -9.8768834059513777e-01  -9.8078528040323043e-01  -9.7236992039767667e-01  -9.6245523645364739e-01  -9.5105651629515353e-01  -9.3819133592248416e-01  -9.2387953251128685e-01  -9.0814317382508147e-01  -8.9100652418836812e-01  -8.7249600707279706e-01  -8.5264016435409229e-01  -8.3146961230254546e-01  -8.0901699437494756e-01  -7.8531693088074517e-01  -7.6040596560003071e-01  -7.3432250943568544e-01  -7.0710678118654768e-01  -6.7880074553294201e-01  -6.4944804833018410e-01  -6.1909394930983364e-01  -5.8778525229247325e-01  -5.5557023301960218e-01  -5.2249856471594935e-01  -4.8862124149695529e-01  -4.5399049973954692e-01  -4.1865973753742802e-01  -3.8268343236509034e-01  -3.4611705707749335e-01  -3.0901699437494756e-01  -2.7144044986507421e-01  -2.3344536385590514e-01  -1.9509032201612866e-01  -1.5643446504023104e-01  -1.1753739745783848e-01  -7.8459095727844680e-02  -3.9259815759069012e-02  -1.8369701987210297e-16  3.9259815759068645e-02  7.8459095727844319e-02  1.1753739745783812e-01  1.5643446504023067e-01  1.9509032201612830e-01  2.3344536385590478e-01  2.7144044986507387e-01  3.0901699437494723e-01  3.4611705707749302e-01  3.8268343236509000e-01  4.1865973753742769e-01  4.5399049973954664e-01  4.8862124149695496e-01  5.2249856471594902e-01  5.5557023301960184e-01  5.8778525229247292e-01  6.1909394930983330e-01  6.4944804833018388e-01  6.7880074553294145e-01  7.0710678118654735e-01  7.3432250943568556e-01  7.6040596560003049e-01  7.8531693088074517e-01  8.0901699437494734e-01  8.3146961230254524e-01  8.5264016435409185e-01  8.7249600707279684e-01  8.9100652418836779e-01  9.0814317382508125e-01  9.2387953251128652e-01  9.3819133592248394e-01  9.5105651629515353e-01  9.6245523645364728e-01  9.7236992039767667e-01  9.8078528040323032e-01  9.8768834059513766e-01  9.9306845695492618e-01  9.9691733373312796e-01  9.9922903624072290e-01  1.0000000000000000e+00  9.9922903624072290e-01  9.9845810536010648e-01  9.9614782111267264e-01  9.9230166659619279e-01  9.8692553477827538e-01  9.8002769453308292e-01  9.7161876892729859e-01  9.6171171515423393e-01  9.5032180283987910e-01  9.3746658961054941e-01  9.2316589351874945e-01  9.0744176218115691e-01  8.9031843858781934e-01  8.7182232359032841e-01  8.5198193510238129e-01  8.3082786406160303e-01  8.0839272721206357e-01  7.8471111677499938e-01  7.5981954708189159e-01  7.3375639824988703e-01  7.0656185698482643e-01  6.7827785460205137e-01  6.4894800235975691e-01  6.1861752420402016e-01  5.8733318702877990e-01  5.5514322855797371e-01  5.2209728296078550e-01  4.8824630431450955e-01  4.5364248803289470e-01  4.1833919038100381e-01  3.8239084620059549e-01  3.4585288497281552e-01  3.0878164534756053e-01  2.7123428827125406e-01  2.3326870884694281e-01  1.9494344706258904e-01  1.5631759752517441e-01  1.1745071833978066e-01  7.8402739274125596e-02  3.9233869350141705e-02  4.5040050712494273e-06  -3.9224868034785594e-02  -7.8393758024086102e-02  -1.1744177046841404e-01  -1.5630869625040220e-01  -1.9493460546841176e-01  -2.3325993984463445e-01  -2.7122560456012801e-01  -3.0877305937518895e-01  -3.4584440889457035e-01  -3.8238249183835726e-01  -4.1833096918086288e-01  -4.5363441102163737e-01  -4.8823838205464543e-01  -5.2208952550383125e-01  -5.5513564539564275e-01  -5.8732578704166749e-01  -6.1861031560727464e-01  -6.4894099264512428e-01  -6.7827105047553360e-01  -7.0655526429900950e-01  -7.3375002192976335e-01  -7.5981339104267498e-01  -7.8470518383002630e-01  -8.0838701896830401e-01  -8.3082238079952375e-01  -8.5197667563582646e-01  -8.7181728510052647e-01  -8.9031361642336371e-01  -9.0743714961241417e-01  -9.2316148142991483e-01  -9.3746236610420453e-01  -9.5031775271499896e-01  -9.6170781919435999e-01  -9.7161500289092984e-01  -9.8002402765030250e-01  -9.8692192736978024e-01  -9.9229806599118731e-01  -9.9614415390092415e-01  -9.9845426071196708e-01  -9.9922482440810645e-01  -9.9845465683632506e-01  -9.9614494553884503e-01  -9.9229925192202262e-01  -9.8692350576491128e-01  -9.8002599607595853e-01  -9.7161735831194040e-01  -9.6171055797883720e-01  -9.5032087063993542e-01  -9.3746585836198626e-01  -9.2316534263573280e-01  -9.0744137381256906e-01  -8.9031819710444537e-01  -8.7182221519945613e-01  -8.5198194755074963e-01  -8.3082798640152933e-01  -8.0839294961396002e-01  -7.8471143037470747e-01  -7.5981994385466123e-01  -7.3375687090509423e-01  -7.0656239887706174e-01  -6.7827845965530476e-01  -6.4894866500219628e-01  -6.1861823931142823e-01  -5.8733394987512588e-01  -5.5514403477190821e-01  -5.2209812848709358e-01  -4.8824718537972828e-01  -4.5364340111445101e-01  -4.1834013217933641e-01  -3.8239181361381097e-01  -3.4585387507350196e-01  -3.0878265536143712e-01  -2.7123531555737651e-01  -2.3326975087923030e-01  -1.9494450141245045e-01  -1.5631866184505536e-01  -1.1745179034745760e-01  -7.8403816737591517e-02  -3.9234950072946910e-02  -5.5858119733230686e-06  3.9223787311980243e-02  7.8392680560619141e-02  1.1744069846073731e-01  1.5630763193052036e-01  1.9493355111854904e-01  2.3325889781234538e-01  2.7122457727400345e-01  3.0877204936131147e-01  3.4584341879388231e-01  3.8238152442513995e-01  4.1833002738252795e-01  4.5363349794007829e-01  4.8823750098942431e-01  5.2208867997752040e-01  5.5513483918170514e-01  5.8732502419531829e-01  6.1860960049986324e-01  6.4894033000268259e-01  6.7827044542227721e-01  7.0655472240677064e-01  7.3374954927455227e-01  7.5981299426990145e-01  7.8470487023031488e-01  8.0838679656640355e-01  8.3082225845959368e-01  8.5197666318745457e-01  8.7181739349139431e-01  8.9031385790673423e-01  9.0743753798099847e-01  9.2316203231292804e-01  9.3746309735276423e-01  9.5031868491493898e-01  9.6170897636975294e-01  9.7161641350628403e-01  9.8002572610742344e-01  9.8692395638314057e-01  9.9230048066535426e-01  9.9614702947474976e-01  9.9845770923574739e-01  9.9922903624072290e-01  9.9691733373312796e-01  9.9614782111267275e-01  9.9384259396166186e-01  9.9000512683445785e-01  9.8464128665621609e-01  9.7775931158088014e-01  9.6936979099507437e-01  9.5948564512539258e-01  9.4812210283034326e-01  9.3529667678421669e-01  9.2102913565932676e-01  9.0534147312460822e-01  8.8825787358798358e-01  8.6980467466840061e-01  8.5001032641669705e-01  8.2890534732489674e-01  8.0652227717727043e-01  7.8289562680654412e-01  7.5806182482655138e-01  7.3205916141928062e-01  7.0492772926007641e-01  6.7670936167002160e-01  6.4744756808937409e-01  6.1718746697045268e-01  5.8597571619262867e-01  5.5386044110610078e-01  5.2089116031492944e-01  4.8711870931339762e-01  4.5259516209315831e-01  4.1737375084181472e-01  3.8150878385657350e-01  3.4505556179939040e-01  3.0807029242261985e-01  2.7061000389655787e-01  2.3273245687243704e-01  1.9449605541640499e-01  1.5595975695175815e-01  1.1718298134824980e-01  7.8225519298609728e-02  3.9147440123517653e-02  8.9991471624388509e-06  -3.9129455213820066e-02  -7.8207574504788629e-02  -1.1716510328744976e-01  -1.5594197205066185e-01  -1.9447838983443314e-01  -2.3271493642431590e-01  -2.7059265397404159e-01  -3.0805313791513511e-01  -3.4503862701334248e-01  -3.8149209243301080e-01  -4.1735732567210615e-01  -4.5257902523227644e-01  -4.8710288189033135e-01  -5.2087566243966021e-01  -5.5384529177246422e-01  -5.8596093317625064e-01  -6.1717306672077077e-01  -6.4743356561454379e-01  -6.7669577041323470e-01  -7.0491456096545513e-01  -7.3204642598506720e-01  -7.5804953014270327e-01  -7.8288377857306635e-01  -8.0651087869853566e-01  -8.2889439927375741e-01  -8.4999982656018014e-01  -8.6979461754391407e-01  -8.8824825011486175e-01  -9.0533227012974693e-01  -9.2102033528647442e-01  -9.3528825574216956e-01  -9.4811403141227069e-01  -9.5947788589316019e-01  -9.6936229695603071e-01  -9.7775202356496316e-01  -9.8463412937756378e-01  -9.8999800269191829e-01  -9.9383537280910950e-01  -9.9614032278606934e-01  -9.9690929855909882e-01  -9.9614111442399034e-01  -9.9383695486430335e-01  -9.9000037272497021e-01  -9.8463728373405501e-01  -9.7775595738110488e-01  -9.6936700416616361e-01  -9.5948335923910777e-01  -9.4812026245452929e-01  -9.3529523487292421e-01  -9.2102805174441116e-01  -9.0534071201664679e-01  -8.8825740441394707e-01  -8.6980447013991868e-01  -8.5001036226111570e-01  -8.2890560183433670e-01  -8.0652273084522208e-01  -7.8289626203070928e-01  -7.5806262566271487e-01  -7.3206011337510535e-01  -7.0492881912055716e-01  -6.7671057734835860e-01  -6.4744889849846876e-01  -6.1718890191130027e-01  -5.8597724625666958e-01  -5.5386205758918494e-01  -5.2089285514100814e-01  -4.8712047496640781e-01  -4.5259699155583227e-01  -4.1737563754037355e-01  -3.8151072161041588e-01  -3.4505754477504380e-01  -3.0807231509131583e-01  -2.7061206099488488e-01  -2.3273454336560323e-01  -1.9449816646368207e-01  -1.5596188787374346e-01  -1.1718512759560884e-01  -7.8227676421992368e-02  -3.9149603744370140e-02  -1.1164929159893815e-05  3.9127291592967045e-02  7.8205417381404491e-02  1.1716295704009005e-01  1.5593984112867479e-01  1.9447627878715373e-01  2.3271284993114685e-01  2.7059059687571113e-01  3.0805111524643669e-01  3.4503664403768552e-01  3.8149015467916436e-01  4.1735543897354277e-01  4.5257719576959726e-01  4.8710111623731667e-01  5.2087396761357585e-01  5.5384367528937406e-01  5.8595940311220307e-01  6.1717163177991652e-01  6.4743223520544335e-01  6.7669455473489093e-01  7.0491347110496705e-01  7.3204547402923481e-01  7.5804872930653211e-01  7.8288314334889408e-01  8.0651042503057646e-01  8.2889414476431000e-01  8.4999979071575393e-01  8.6979482207238856e-01  8.8824871928889171e-01  9.0533303123770192e-01  9.2102141920138347e-01  9.3528969765345538e-01  9.4811587178807810e-01  9.5948017177943878e-01  9.6936508378493480e-01  9.7775537776473165e-01  9.8463813229971864e-01  9.9000275680140082e-01  9.9384101190646446e-01  9.9614702947474931e-01  9.9691733373312796e-01  9.9306845695492629e-01  9.9230166659619279e-01  9.9000512683445774e-01  9.8618231022455727e-01  9.8083906055011560e-01  9.7398357974207972e-01  9.6562641118236447e-01  9.5578042045350053e-01  9.4446077347071733e-01  9.3168491174803203e-01  9.1747252460219442e-01  9.0184551817850456e-01  8.8482798124504070e-01  8.6644614774441386e-01  8.4672835612056829e-01  8.2570500545749792e-01  8.0340850848058620e-01  7.7987324148171733e-01  7.5513549123765256e-01  7.2923339899814610e-01  7.0220690162635280e-01  6.7409766997954457e-01  6.4494904462313196e-01  6.1480596897562267e-01  5.8371491998647274e-01  5.5172383645286149e-01  5.1888204508525892e-01  4.8524018443526484e-01  4.5085012680261372e-01  4.1576489824142898e-01  3.8003859678881802e-01  3.4372630904167545e-01  3.0688402521015945e-01  2.6956855277868141e-01  2.3183742890741749e-01  1.9374883170932133e-01  1.5536149053935547e-01  1.1673459543420475e-01  7.7927705842049846e-02  3.9000658783082960e-02  1.3476582336913775e-05  -3.8973725682942474e-02  -7.7900832878701087e-02  -1.1670782250935244e-01  -1.5533485727002552e-01  -1.9372237731308664e-01  -2.3181119208669454e-01  -2.6954257160378703e-01  -3.0685833700078796e-01  -3.4370095024641156e-01  -3.8001360286224534e-01  -4.1574030351832769e-01  -4.5082596436865585e-01  -4.8521648599351130e-01  -5.1885884081763756e-01  -5.5170115487564275e-01  -5.8369278779856759e-01  -6.1478441089828006e-01  -6.4492808322930373e-01  -6.7407732551080823e-01  -7.0218719179476963e-01  -7.2921433876981079e-01  -7.5511709259385307e-01  -7.7985551315253665e-01  -8.0339145564432612e-01  -8.2568862939734589e-01  -8.4671265382725647e-01  -8.6643111144988672e-01  -8.8481359786688851e-01  -9.0183176864733283e-01  -9.1745938303296692e-01  -9.3167234439974167e-01  -9.4444873741321800e-01  -9.5576886182056797e-01  -9.6561526282706245e-01  -9.7397275801020822e-01  -9.8082846073003704e-01  -9.8617179999944815e-01  -9.8999453678396920e-01  -9.9229077670579824e-01  -9.9305697913254154e-01  -9.9229196263663400e-01  -9.8999690681702190e-01  -9.8617535048029770e-01  -9.8083318618409965e-01  -9.7397865115117666e-01  -9.6562231456814074e-01  -9.5577706128848261e-01  -9.4445807196498344e-01  -9.3168279964215550e-01  -9.1747094284480335e-01  -9.0184441520419956e-01  -8.8482731166871209e-01  -8.6644587135097773e-01  -8.4672843706891743e-01  -8.2570541164296274e-01  -8.0340921101689233e-01  -7.7987421427455472e-01  -7.5513671062954757e-01  -7.2923484346959344e-01  -7.0220855154187989e-01  -6.7409950737006419e-01  -6.4495105299788613e-01  -6.1480813315846949e-01  -5.8371722597235964e-01  -5.5172627128114426e-01  -5.1888459672717180e-01  -4.8524284169333298e-01  -4.5085287922018519e-01  -4.1576773602081535e-01  -3.8004151071676046e-01  -3.4372929042106520e-01  -3.0688706579708536e-01  -2.6957164472400558e-01  -2.3184056470219108e-01  -1.9375200413341692e-01  -1.5536469261277991e-01  -1.1673782037059538e-01  -7.7930947003903836e-02  -3.9003909638307660e-02  -1.6730661718988317e-05  3.8970474827717018e-02  7.7897591716845210e-02  1.1670459757296056e-01  1.5533165519659861e-01  1.9371920488898789e-01  2.3180805629191717e-01  2.6953947965845815e-01  3.0685529641385811e-01  3.4369796886701665e-01  3.8001068893429718e-01  4.1573746573893489e-01  4.5082321195107705e-01  4.8521382873543645e-01  5.1885628917571658e-01  5.5169872004735121e-01  5.8369048181267147e-01  6.1478224671542336e-01  6.4492607485454068e-01  6.7407548812027884e-01  7.0218554187923232e-01  7.2921289429835290e-01  7.5511587320194751e-01  7.7985454035968926e-01  8.0339075310801011e-01  8.2568822321187130e-01  8.4671257287889712e-01  8.6643138784331297e-01  8.8481426744320835e-01  9.0183287162162851e-01  9.1746096479034878e-01  9.3167445650560921e-01  9.4445143891894279e-01  9.5577222098557735e-01  9.6561935944127786e-01  9.7397768660110329e-01  9.8083433509604567e-01  9.8617875974370173e-01  9.9000275680140093e-01  9.9230048066535415e-01  9.9306845695492629e-01  9.8768834059513777e-01  9.8692553477827538e-01  9.8464128665621586e-01  9.8083906055011560e-01  9.7552467201381199e-01  9.6870627805210974e-01  9.6039436270244538e-01  9.5060171904071633e-01  9.3934342796319548e-01  9.2663683380316286e-01  9.1250151675551616e-01  8.9695926207694177e-01  8.8003402604706160e-01  8.6175189869695368e-01  8.4214106332977212e-01  8.2123175287293460e-01  7.9905620311313841e-01  7.7564860287501147e-01  7.5104504121219362e-01  7.2528345168650088e-01  6.9840355381688590e-01  6.7044679178537436e-01  6.4145627049218046e-01  6.1147668905684915e-01  5.8055427186662756e-01  5.4873669727735730e-01  5.1607302407602207e-01  4.8261361581770768e-01  4.4841006315314025e-01  4.1351510426616445e-01  3.7798254354352290e-01  3.4186716860207045e-01  3.0522466580115160e-01  2.6811153437023494e-01  2.3058499928406287e-01  1.9270292301954009e-01  1.5452371633031611e-01  1.1610624817655577e-01  7.7509754948707280e-02  3.8793749125171056e-02  1.7927504664039046e-05  -3.8757920845272423e-02  -7.7474006781722643e-02  -1.1607063327968085e-01  -1.5448828748305143e-01  -1.9266773247144553e-01  -2.3055009860130951e-01  -2.6807697428055638e-01  -3.0519049603675197e-01  -3.4183343773999741e-01  -3.7794929884293799e-01  -4.1348239150185995e-01  -4.4837792644454588e-01  -4.8258209745249681e-01  -5.1604216432726924e-01  -5.4870653421299875e-01  -5.8052484114973280e-01  -6.1144802373490525e-01  -6.4142840077321495e-01  -6.7041974479826660e-01  -6.9837735335261020e-01  -7.2525811791627803e-01  -7.5102059037753843e-01  -7.7562504694337664e-01  -7.9903354939116067e-01  -8.2121000356705087e-01  -8.4212021504095069e-01  -8.6173194183219215e-01  -8.8001494412465120e-01  -8.9694103089464450e-01  -9.1248410337970631e-01  -9.2662019532122686e-01  -9.3932750991889902e-01  -9.5058645343999137e-01  -9.6037966543163211e-01  -9.6869204548951404e-01  -9.7551077654174589e-01  -9.8082534461195481e-01  -9.8462755503115795e-01  -9.8691154507341339e-01  -9.8767379299576563e-01  -9.8691312346854487e-01  -9.8463070938764974e-01  -9.8083007006601752e-01  -9.7551706580707231e-01  -9.6869988886851277e-01  -9.6038905083038228e-01  -9.5059736638688797e-01  -9.3933993358696888e-01  -9.2663411055407430e-01  -9.1249948872105036e-01  -8.9695786262140409e-01  -8.8003319628352394e-01  -8.6175158627967130e-01  -8.4214122148672299e-01  -8.2123233962069964e-01  -7.9905718061210929e-01  -7.7564993689399520e-01  -7.5104670067932688e-01  -7.2528540830904442e-01  -6.9840578175654699e-01  -6.7044926737883526e-01  -6.4145897200873625e-01  -6.1147959648674910e-01  -5.8055736673500535e-01  -5.4873996247960466e-01  -5.1607644373124439e-01  -4.8261717513748503e-01  -4.4841374832329844e-01  -4.1351890233963723e-01  -3.7798644234267409e-01  -3.4187115662910816e-01  -3.0522873215544449e-01  -2.6811566867150605e-01  -2.3058919160057123e-01  -1.9270716380044761e-01  -1.5452799634154268e-01  -1.1611055843947998e-01  -7.7514086681126054e-02  -3.8798093683981329e-02  -2.2276329744536284e-05  3.8753576286461235e-02  7.7469675049301676e-02  1.1606632301675499e-01  1.5448400747182187e-01  1.9266349169053415e-01  2.3054590628479643e-01  2.6807283997927933e-01  3.0518642968245374e-01  3.4182944971295298e-01  3.7794540004377930e-01  4.1347859342837900e-01  4.4837424127437847e-01  4.8257853813271090e-01  5.1603874467203703e-01  5.4870326901074051e-01  5.8052174628134368e-01  6.1144511630499332e-01  6.4142569925664772e-01  6.7041726920479350e-01  6.9837512541293667e-01  7.2525616129372195e-01  7.5101893091039240e-01  7.7562371292438081e-01  7.9903257189217836e-01  8.2120941681927473e-01  8.4212005688398817e-01  8.6173225424946243e-01  8.8001577388817753e-01  8.9694243035017074e-01  9.1248613141416068e-01  9.2662291857030443e-01  9.3933100429511485e-01  9.5059080609380953e-01  9.6038497730368555e-01  9.6869843467310124e-01  9.7551838274847713e-01  9.8083433509604578e-01  9.8463813229971930e-01  9.8692395638314123e-01  9.8768834059513777e-01  9.8078528040323043e-01  9.8002769453308247e-01  9.7775931158087959e-01  9.7398357974207950e-01  9.6870627805210952e-01  9.6193550774701231e-01  9.5368167910129231e-01  9.4395749438798671e-0