<?xml version="1.0"?>
<VTKFile type="UnstructuredGrid"  version="0.1"  >
<UnstructuredGrid>
<Piece  NumberOfPoints="4225" NumberOfCells="4096">
<Points>
<DataArray  type="Float64"  NumberOfComponents="3"  format="ascii">0 0 0  0.015625 0 0  0.03125 0 0  0.046875 0 0  0.0625 0 0  0.078125 0 0  0.09375 0 0  0.109375 0 0  0.125 0 0  0.140625 0 0  0.15625 0 0  0.171875 0 0  0.1875 0 0  0.203125 0 0  0.21875 0 0  0.234375 0 0  0.25 0 0  0.265625 0 0  0.28125 0 0  0.296875 0 0  0.3125 0 0  0.328125 0 0  0.34375 0 0  0.359375 0 0  0.375 0 0  0.390625 0 0  0.40625 0 0  0.421875 0 0  0.4375 0 0  0.453125 0 0  0.46875 0 0  0.484375 0 0  0.5 0 0  0.515625 0 0  0.53125 0 0  0.546875 0 0  0.5625 0 0  0.578125 0 0  0.59375 0 0  0.609375 0 0  0.625 0 0  0.640625 0 0  0.65625 0 0  0.671875 0 0  0.6875 0 0  0.703125 0 0  0.71875 0 0  0.734375 0 0  0.75 0 0  0.765625 0 0  0.78125 0 0  0.796875 0 0  0.8125 0 0  0.828125 0 0  0.84375 0 0  0.859375 0 0  0.875 0 0  0.890625 0 0  0.90625 0 0  0.921875 0 0  0.9375 0 0  0.953125 0 0  0.96875 0 0  0.984375 0 0  1 0 0  0 0.015625 0  0.015625 0.015625 0  0.03125 0.015625 0  0.046875 0.015625 0  0.0625 0.015625 0  0.078125 0.015625 0  0.09375 0.015625 0  0.109375 0.015625 0  0.125 0.015625 0  0.140625 0.015625 0  0.15625 0.015625 0  0.171875 0.015625 0  0.1875 0.015625 0  0.203125 0.015625 0  0.21875 0.015625 0  0.234375 0.015625 0  0.25 0.015625 0  0.265625 0.015625 0  0.28125 0.015625 0  0.296875 0.015625 0  0.3125 0.015625 0  0.328125 0.015625 0  0.34375 0.015625 0  0.359375 0.015625 0  0.375 0.015625 0  0.390625 0.015625 0  0.40625 0.015625 0  0.421875 0.015625 0  0.4375 0.015625 0  0.453125 0.015625 0  0.46875 0.015625 0  0.484375 0.015625 0  0.5 0.015625 0  0.515625 0.015625 0  0.53125 0.015625 0  0.546875 0.015625 0  0.5625 0.015625 0  0.578125 0.015625 0  0.59375 0.015625 0  0.609375 0.015625 0  0.625 0.015625 0  0.640625 0.015625 0  0.65625 0.015625 0  0.671875 0.015625 0  0.6875 0.015625 0  0.703125 0.015625 0  0.71875 0.015625 0  0.734375 0.015625 0  0.75 0.015625 0  0.765625 0.015625 0  0.78125 0.015625 0  0.796875 0.015625 0  0.8125 0.015625 0  0.828125 0.015625 0  0.84375 0.015625 0  0.859375 0.015625 0  0.875 0.015625 0  0.890625 0.015625 0  0.90625 0.015625 0  0.921875 0.015625 0  0.9375 0.015625 0  0.953125 0.015625 0  0.96875 0.015625 0  0.984375 0.015625 0  1 0.015625 0  0 0.03125 0  0.015625 0.03125 0  0.03125 0.03125 0  0.046875 0.03125 0  0.0625 0.03125 0  0.078125 0.03125 0  0.09375 0.03125 0  0.109375 0.03125 0  0.125 0.03125 0  0.140625 0.03125 0  0.15625 0.03125 0  0.171875 0.03125 0  0.1875 0.03125 0  0.203125 0.03125 0  0.21875 0.03125 0  0.234375 0.03125 0  0.25 0.03125 0  0.265625 0.03125 0  0.28125 0.03125 0  0.296875 0.03125 0  0.3125 0.03125 0  0.328125 0.03125 0  0.34375 0.03125 0  0.359375 0.03125 0  0.375 0.03125 0  0.390625 0.03125 0  0.40625 0.03125 0  0.421875 0.03125 0  0.4375 0.03125 0  0.453125 0.03125 0  0.46875 0.03125 0  0.484375 0.03125 0  0.5 0.03125 0  0.515625 0.03125 0  0.53125 0.03125 0  0.546875 0.03125 0  0.5625 0.03125 0  0.578125 0.03125 0  0.59375 0.03125 0  0.609375 0.03125 0  0.625 0.03125 0  0.640625 0.03125 0  0.65625 0.03125 0  0.671875 0.03125 0  0.6875 0.03125 0  0.703125 0.03125 0  0.71875 0.03125 0  0.734375 0.03125 0  0.75 0.03125 0  0.765625 0.03125 0  0.78125 0.03125 0  0.796875 0.03125 0  0.8125 0.03125 0  0.828125 0.03125 0  0.84375 0.03125 0  0.859375 0.03125 0  0.875 0.03125 0  0.890625 0.03125 0  0.90625 0.03125 0  0.921875 0.03125 0  0.9375 0.03125 0  0.953125 0.03125 0  0.96875 0.03125 0  0.984375 0.03125 0  1 0.03125 0  0 0.046875 0  0.015625 0.046875 0  0.03125 0.046875 0  0.046875 0.046875 0  0.0625 0.046875 0  0.078125 0.046875 0  0.09375 0.046875 0  0.109375 0.046875 0  0.125 0.046875 0  0.140625 0.046875 0  0.15625 0.046875 0  0.171875 0.046875 0  0.1875 0.046875 0  0.203125 0.046875 0  0.21875 0.046875 0  0.234375 0.046875 0  0.25 0.046875 0  0.265625 0.046875 0  0.28125 0.046875 0  0.296875 0.046875 0  0.3125 0.046875 0  0.328125 0.046875 0  0.34375 0.046875 0  0.359375 0.046875 0  0.375 0.046875 0  0.390625 0.046875 0  0.40625 0.046875 0  0.421875 0.046875 0  0.4375 0.046875 0  0.453125 0.046875 0  0.46875 0.046875 0  0.484375 0.046875 0  0.5 0.046875 0  0.515625 0.046875 0  0.53125 0.046875 0  0.546875 0.046875 0  0.5625 0.046875 0  0.578125 0.046875 0  0.59375 0.046875 0  0.609375 0.046875 0  0.625 0.046875 0  0.640625 0.046875 0  0.65625 0.046875 0  0.671875 0.046875 0  0.6875 0.046875 0  0.703125 0.046875 0  0.71875 0.046875 0  0.734375 0.046875 0  0.75 0.046875 0  0.765625 0.046875 0  0.78125 0.046875 0  0.796875 0.046875 0  0.8125 0.046875 0  0.828125 0.046875 0  0.84375 0.046875 0  0.859375 0.046875 0  0.875 0.046875 0  0.890625 0.046875 0  0.90625 0.046875 0  0.921875 0.046875 0  0.9375 0.046875 0  0.953125 0.046875 0  0.96875 0.046875 0  0.984375 0.046875 0  1 0.046875 0  0 0.0625 0  0.015625 0.0625 0  0.03125 0.0625 0  0.046875 0.0625 0  0.0625 0.0625 0  0.078125 0.0625 0  0.09375 0.0625 0  0.109375 0.0625 0  0.125 0.0625 0  0.140625 0.0625 0  0.15625 0.0625 0  0.171875 0.0625 0  0.1875 0.0625 0  0.203125 0.0625 0  0.21875 0.0625 0  0.234375 0.0625 0  0.25 0.0625 0  0.265625 0.0625 0  0.28125 0.0625 0  0.296875 0.0625 0  0.3125 0.0625 0  0.328125 0.0625 0  0.34375 0.0625 0  0.359375 0.0625 0  0.375 0.0625 0  0.390625 0.0625 0  0.40625 0.0625 0  0.421875 0.0625 0  0.4375 0.0625 0  0.453125 0.0625 0  0.46875 0.0625 0  0.484375 0.0625 0  0.5 0.0625 0  0.515625 0.0625 0  0.53125 0.0625 0  0.546875 0.0625 0  0.5625 0.0625 0  0.578125 0.0625 0  0.59375 0.0625 0  0.609375 0.0625 0  0.625 0.0625 0  0.640625 0.0625 0  0.65625 0.0625 0  0.671875 0.0625 0  0.6875 0.0625 0  0.703125 0.0625 0  0.71875 0.0625 0  0.734375 0.0625 0  0.75 0.0625 0  0.765625 0.0625 0  0.78125 0.0625 0  0.796875 0.0625 0  0.8125 0.0625 0  0.828125 0.0625 0  0.84375 0.0625 0  0.859375 0.0625 0  0.875 0.0625 0  0.890625 0.0625 0  0.90625 0.0625 0  0.921875 0.0625 0  0.9375 0.0625 0  0.953125 0.0625 0  0.96875 0.0625 0  0.984375 0.0625 0  1 0.0625 0  0 0.078125 0  0.015625 0.078125 0  0.03125 0.078125 0  0.046875 0.078125 0  0.0625 0.078125 0  0.078125 0.078125 0  0.09375 0.078125 0  0.109375 0.078125 0  0.125 0.078125 0  0.140625 0.078125 0  0.15625 0.078125 0  0.171875 0.078125 0  0.1875 0.078125 0  0.203125 0.078125 0  0.21875 0.078125 0  0.234375 0.078125 0  0.25 0.078125 0  0.265625 0.078125 0  0.28125 0.078125 0  0.296875 0.078125 0  0.3125 0.078125 0  0.328125 0.078125 0  0.34375 0.078125 0  0.359375 0.078125 0  0.375 0.078125 0  0.390625 0.078125 0  0.40625 0.078125 0  0.421875 0.078125 0  0.4375 0.078125 0  0.453125 0.078125 0  0.46875 0.078125 0  0.484375 0.078125 0  0.5 0.078125 0  0.515625 0.078125 0  0.53125 0.078125 0  0.546875 0.078125 0  0.5625 0.078125 0  0.578125 0.078125 0  0.59375 0.078125 0  0.609375 0.078125 0  0.625 0.078125 0  0.640625 0.078125 0  0.65625 0.078125 0  0.671875 0.078125 0  0.6875 0.078125 0  0.703125 0.078125 0  0.71875 0.078125 0  0.734375 0.078125 0  0.75 0.078125 0  0.765625 0.078125 0  0.78125 0.078125 0  0.796875 0.078125 0  0.8125 0.078125 0  0.828125 0.078125 0  0.84375 0.078125 0  0.859375 0.078125 0  0.875 0.078125 0  0.890625 0.078125 0  0.90625 0.078125 0  0.921875 0.078125 0  0.9375 0.078125 0  0.953125 0.078125 0  0.96875 0.078125 0  0.984375 0.078125 0  1 0.078125 0  0 0.09375 0  0.015625 0.09375 0  0.03125 0.09375 0  0.046875 0.09375 0  0.0625 0.09375 0  0.078125 0.09375 0  0.09375 0.09375 0  0.109375 0.09375 0  0.125 0.09375 0  0.140625 0.09375 0  0.15625 0.09375 0  0.171875 0.09375 0  0.1875 0.09375 0  0.203125 0.09375 0  0.21875 0.09375 0  0.234375 0.09375 0  0.25 0.09375 0  0.265625 0.09375 0  0.28125 0.09375 0  0.296875 0.09375 0  0.3125 0.09375 0  0.328125 0.09375 0  0.34375 0.09375 0  0.359375 0.09375 0  0.375 0.09375 0  0.390625 0.09375 0  0.40625 0.09375 0  0.421875 0.09375 0  0.4375 0.09375 0  0.453125 0.09375 0  0.46875 0.09375 0  0.484375 0.09375 0  0.5 0.09375 0  0.515625 0.09375 0  0.53125 0.09375 0  0.546875 0.09375 0  0.5625 0.09375 0  0.578125 0.09375 0  0.59375 0.09375 0  0.609375 0.09375 0  0.625 0.09375 0  0.640625 0.09375 0  0.65625 0.09375 0  0.671875 0.09375 0  0.6875 0.09375 0  0.703125 0.09375 0  0.71875 0.09375 0  0.734375 0.09375 0  0.75 0.09375 0  0.765625 0.09375 0  0.78125 0.09375 0  0.796875 0.09375 0  0.8125 0.09375 0  0.828125 0.09375 0  0.84375 0.09375 0  0.859375 0.09375 0  0.875 0.09375 0  0.890625 0.09375 0  0.90625 0.09375 0  0.921875 0.09375 0  0.9375 0.09375 0  0.953125 0.09375 0  0.96875 0.09375 0  0.984375 0.09375 0  1 0.09375 0  0 0.109375 0  0.015625 0.109375 0  0.03125 0.109375 0  0.046875 0.109375 0  0.0625 0.109375 0  0.078125 0.109375 0  0.09375 0.109375 0  0.109375 0.109375 0  0.125 0.109375 0  0.140625 0.109375 0  0.15625 0.109375 0  0.171875 0.109375 0  0.1875 0.109375 0  0.203125 0.109375 0  0.21875 0.109375 0  0.234375 0.109375 0  0.25 0.109375 0  0.265625 0.109375 0  0.28125 0.109375 0  0.296875 0.109375 0  0.3125 0.109375 0  0.328125 0.109375 0  0.34375 0.109375 0  0.359375 0.109375 0  0.375 0.109375 0  0.390625 0.109375 0  0.40625 0.109375 0  0.421875 0.109375 0  0.4375 0.109375 0  0.453125 0.109375 0  0.46875 0.109375 0  0.484375 0.109375 0  0.5 0.109375 0  0.515625 0.109375 0  0.53125 0.109375 0  0.546875 0.109375 0  0.5625 0.109375 0  0.578125 0.109375 0  0.59375 0.109375 0  0.609375 0.109375 0  0.625 0.109375 0  0.640625 0.109375 0  0.65625 0.109375 0  0.671875 0.109375 0  0.6875 0.109375 0  0.703125 0.109375 0  0.71875 0.109375 0  0.734375 0.109375 0  0.75 0.109375 0  0.765625 0.109375 0  0.78125 0.109375 0  0.796875 0.109375 0  0.8125 0.109375 0  0.828125 0.109375 0  0.84375 0.109375 0  0.859375 0.109375 0  0.875 0.109375 0  0.890625 0.109375 0  0.90625 0.109375 0  0.921875 0.109375 0  0.9375 0.109375 0  0.953125 0.109375 0  0.96875 0.109375 0  0.984375 0.109375 0  1 0.109375 0  0 0.125 0  0.015625 0.125 0  0.03125 0.125 0  0.046875 0.125 0  0.0625 0.125 0  0.078125 0.125 0  0.09375 0.125 0  0.109375 0.125 0  0.125 0.12
[...]
<PointData  Scalars="f_10036"> 
<DataArray  type="Float64"  Name="f_10036"  format="ascii">1.0000000000000000e+00  9.9518472667219693e-01  9.8078528040323043e-01  9.5694033573220882e-01  9.2387953251128674e-01  8.8192126434835505e-01  8.3146961230254524e-01  7.7301045336273699e-01  7.0710678118654757e-01  6.3439328416364549e-01  5.5557023301960229e-01  4.7139673682599781e-01  3.8268343236508984e-01  2.9028467725446233e-01  1.9509032201612833e-01  9.8017140329560770e-02  6.1232339957367660e-17  -9.8017140329560645e-02  -1.9509032201612819e-01  -2.9028467725446216e-01  -3.8268343236508973e-01  -4.7139673682599770e-01  -5.5557023301960196e-01  -6.3439328416364538e-01  -7.0710678118654746e-01  -7.7301045336273699e-01  -8.3146961230254535e-01  -8.8192126434835494e-01  -9.2387953251128674e-01  -9.5694033573220882e-01  -9.8078528040323043e-01  -9.9518472667219682e-01  -1.0000000000000000e+00  -9.9518472667219693e-01  -9.8078528040323043e-01  -9.5694033573220894e-01  -9.2387953251128685e-01  -8.8192126434835505e-01  -8.3146961230254546e-01  -7.7301045336273710e-01  -7.0710678118654768e-01  -6.3439328416364593e-01  -5.5557023301960218e-01  -4.7139673682599786e-01  -3.8268343236509034e-01  -2.9028467725446244e-01  -1.9509032201612866e-01  -9.8017140329560451e-02  -1.8369701987210297e-16  9.8017140329560090e-02  1.9509032201612830e-01  2.9028467725446205e-01  3.8268343236509000e-01  4.7139673682599759e-01  5.5557023301960184e-01  6.3439328416364560e-01  7.0710678118654735e-01  7.7301045336273666e-01  8.3146961230254524e-01  8.8192126434835483e-01  9.2387953251128652e-01  9.5694033573220882e-01  9.8078528040323032e-01  9.9518472667219693e-01  1.0000000000000000e+00  9.9518472667219693e-01  9.9041418713464002e-01  9.7609689623177542e-01  9.5237502243109395e-01  9.1947855668507938e-01  8.7772513791921847e-01  8.2751738692401899e-01  7.6933917783190953e-01  7.0375104538559663e-01  6.3138482186257483e-01  5.5293757246668684e-01  4.6916489478332957e-01  3.8087365020295322e-01  2.8891419904759841e-01  1.9417221513728827e-01  9.7560159185717490e-02  8.4934839722185175e-06  -9.7543277301439094e-02  -1.9415565278962532e-01  -2.8889818378271098e-01  -3.8085843220430637e-01  -4.6915075774087650e-01  -5.5292484653012952e-01  -6.3137389973405644e-01  -7.0374240311632674e-01  -7.6933340278368256e-01  -8.2751521701038977e-01  -8.7772751949827721e-01  -9.1948673548032034e-01  -9.5239069869499327e-01  -9.7612252437806624e-01  -9.9045366096972132e-01  -9.9524609114511509e-01  -9.9045366096972087e-01  -9.7612252437806590e-01  -9.5239069869499338e-01  -9.1948673548032056e-01  -8.7772751949827743e-01  -8.2751521701039021e-01  -7.6933340278368267e-01  -7.0374240311632719e-01  -6.3137389973405689e-01  -5.5292484653012985e-01  -4.6915075774087689e-01  -3.8085843220430660e-01  -2.8889818378271148e-01  -1.9415565278962549e-01  -9.7543277301439357e-02  8.4934839721977025e-06  9.7560159185717574e-02  1.9417221513728825e-01  2.8891419904759857e-01  3.8087365020295344e-01  4.6916489478332990e-01  5.5293757246668707e-01  6.3138482186257516e-01  7.0375104538559741e-01  7.6933917783191008e-01  8.2751738692401999e-01  8.7772513791921947e-01  9.1947855668508005e-01  9.5237502243109440e-01  9.7609689623177598e-01  9.9041418713464024e-01  9.9518472667219693e-01  9.8078528040323043e-01  9.7609689623177542e-01  9.6199750561715935e-01  9.3862640662538022e-01  9.0621096009255220e-01  8.6506472449904703e-01  8.1558487113477285e-01  7.5824855380067491e-01  6.9360841528618555e-01  6.2228732251992336e-01  5.4497240280990411e-01  4.6240844873944503e-01  3.7539076038103664e-01  2.8475749655418792e-01  1.9138161039189738e-01  9.6162447846038987e-02  1.7090648386253543e-05  -9.6128472506926146e-02  -1.9134826126916374e-01  -2.8472521938389622e-01  -3.7536004490127323e-01  -4.6237984970766594e-01  -5.4494656491702442e-01  -6.2226501112309562e-01  -6.9359055575357298e-01  -7.5823628375270224e-01  -8.1557961251243816e-01  -8.6506828732948848e-01  -9.0622569963530297e-01  -9.3865547677115824e-01  -9.6204529909829373e-01  -9.7616990767620704e-01  -9.8089327353910583e-01  -9.7616990767620648e-01  -9.6204529909829362e-01  -9.3865547677115813e-01  -9.0622569963530297e-01  -8.6506828732948871e-01  -8.1557961251243860e-01  -7.5823628375270269e-01  -6.9359055575357331e-01  -6.2226501112309562e-01  -5.4494656491702487e-01  -4.6237984970766643e-01  -3.7536004490127356e-01  -2.8472521938389672e-01  -1.9134826126916396e-01  -9.6128472506926438e-02  1.7090648386355021e-05  9.6162447846039362e-02  1.9138161039189761e-01  2.8475749655418842e-01  3.7539076038103703e-01  4.6240844873944570e-01  5.4497240280990455e-01  6.2228732251992402e-01  6.9360841528618644e-01  7.5824855380067602e-01  8.1558487113477451e-01  8.6506472449904837e-01  9.0621096009255342e-01  9.3862640662538166e-01  9.6199750561716046e-01  9.7609689623177631e-01  9.8078528040323043e-01  9.5694033573220882e-01  9.5237502243109395e-01  9.3862640662538022e-01  9.1582980265915281e-01  8.8420697736031029e-01  8.4406407742647216e-01  7.9578884455108034e-01  7.3984703243814687e-01  6.7677801836049134e-01  6.0718967085918241e-01  5.3175253641999687e-01  4.5119340933095653e-01  3.6628835148641131e-01  2.7785523226029746e-01  1.8674586207851893e-01  9.3837796580256441e-02  2.5891037298132593e-05  -9.3786313137828009e-02  -1.8669528650203249e-01  -2.7780621030357638e-01  -3.6624159187097982e-01  -4.5114971357306044e-01  -5.3171283388939028e-01  -6.0715506154078369e-01  -6.7674982679471096e-01  -7.3982687795224134e-01  -7.9577873560505863e-01  -8.4406654248005075e-01  -8.8422525251519735e-01  -9.1586810917827499e-01  -9.3869036988827703e-01  -9.5247224066267011e-01  -9.5708099272188496e-01  -9.5247224066266978e-01  -9.3869036988827714e-01  -9.1586810917827455e-01  -8.8422525251519724e-01  -8.4406654248005075e-01  -7.9577873560505874e-01  -7.3982687795224145e-01  -6.7674982679471130e-01  -6.0715506154078402e-01  -5.3171283388939083e-01  -4.5114971357306111e-01  -3.6624159187098021e-01  -2.7780621030357699e-01  -1.8669528650203271e-01  -9.3786313137828300e-02  2.5891037298332950e-05  9.3837796580256913e-02  1.8674586207851934e-01  2.7785523226029818e-01  3.6628835148641187e-01  4.5119340933095720e-01  5.3175253641999731e-01  6.0718967085918329e-01  6.7677801836049234e-01  7.3984703243814853e-01  7.9578884455108201e-01  8.4406407742647405e-01  8.8420697736031173e-01  9.1582980265915415e-01  9.3862640662538210e-01  9.5237502243109506e-01  9.5694033573220882e-01  9.2387953251128674e-01  9.1947855668507950e-01  9.0621096009255231e-01  8.8420697736031040e-01  8.5368055334801118e-01  8.1492727699363687e-01  7.6832159746617967e-01  7.1431330045053509e-01  6.5342324880885738e-01  5.8623842058903519e-01  5.1340629541345228e-01  4.3562864736409435e-01  3.5365480734898186e-01  2.6827446210298117e-01  1.8031006072771935e-01  9.0608902965009563e-02  3.4986134375030526e-05  -9.0539310230927122e-02  -1.8024162160082632e-01  -2.6820799638335280e-01  -3.5359121350644146e-01  -4.3556893939926300e-01  -5.1335164570811520e-01  -5.8619021141213346e-01  -6.5338313606261289e-01  -7.1428329462915519e-01  -7.6830416886128095e-01  -8.1492549512393508e-01  -8.5369827429151635e-01  -8.8424909543393437e-01  -9.0628373164095211e-01  -9.1958997334418657e-01  -9.2403967184237357e-01  -9.1958997334418702e-01  -9.0628373164095188e-01  -8.8424909543393360e-01  -8.5369827429151612e-01  -8.1492549512393531e-01  -7.6830416886128095e-01  -7.1428329462915552e-01  -6.5338313606261345e-01  -5.8619021141213423e-01  -5.1335164570811587e-01  -4.3556893939926355e-01  -3.5359121350644190e-01  -2.6820799638335330e-01  -1.8024162160082652e-01  -9.0539310230927386e-02  3.4986134375315467e-05  9.0608902965010202e-02  1.8031006072771993e-01  2.6827446210298195e-01  3.5365480734898253e-01  4.3562864736409518e-01  5.1340629541345273e-01  5.8623842058903608e-01  6.5342324880885894e-01  7.1431330045053676e-01  7.6832159746618167e-01  8.1492727699363843e-01  8.5368055334801241e-01  8.8420697736031140e-01  9.0621096009255353e-01  9.1947855668508061e-01  9.2387953251128674e-01  8.8192126434835505e-01  8.7772513791921880e-01  8.6506472449904737e-01  8.4406407742647260e-01  8.1492727699363710e-01  7.7793644758100400e-01  7.3344906304417812e-01  6.8189454731941324e-01  6.2377018577856524e-01  5.5963637759446150e-01  4.9011127232067231e-01  4.1586484297641280e-01  3.3761245410686691e-01  2.5610798811197150e-01  1.7213659714151036e-01  8.6507151203031027e-02  4.4455842581336300e-05  -8.6418685184421182e-02  -1.7204948546177731e-01  -2.5602319222451647e-01  -3.3753102603510110e-01  -4.1578796720982025e-01  -4.9004031389218977e-01  -5.5957293889547621e-01  -6.2371617535718715e-01  -6.8185226483818673e-01  -7.3342130572459419e-01  -7.7792664461205285e-01  -8.1493965872350871e-01  -8.4410388328208386e-01  -8.6513844407374429e-01  -8.7784076212978246e-01  -8.8208850447231935e-01  -8.7784076212978235e-01  -8.6513844407374374e-01  -8.4410388328208319e-01  -8.1493965872350849e-01  -7.7792664461205319e-01  -7.3342130572459463e-01  -6.8185226483818706e-01  -6.2371617535718782e-01  -5.5957293889547666e-01  -4.9004031389219044e-01  -4.1578796720982075e-01  -3.3753102603510160e-01  -2.5602319222451692e-01  -1.7204948546177748e-01  -8.6418685184421321e-02  4.4455842581691003e-05  8.6507151203031832e-02  1.7213659714151106e-01  2.5610798811197238e-01  3.3761245410686780e-01  4.1586484297641374e-01  4.9011127232067281e-01  5.5963637759446205e-01  6.2377018577856691e-01  6.8189454731941490e-01  7.3344906304418001e-01  7.7793644758100544e-01  8.1492727699363843e-01  8.4406407742647382e-01  8.6506472449904837e-01  8.7772513791921924e-01  8.8192126434835505e-01  8.3146961230254524e-01  8.2751738692401933e-01  8.1558487113477340e-01  7.9578884455108079e-01  7.6832159746618012e-01  7.3344906304417856e-01  6.9150826335015347e-01  6.4290408633191032e-01  5.8810541596532506e-01  5.2764064630640362e-01  4.6209261930515844e-01  3.9209303408473484e-01  3.1831638164700499e-01  2.4147346395748867e-01  1.6230456044382430e-01  8.1572308283463957e-02  5.4365520393837226e-05  -8.1464071950274400e-02  -1.6219782716354345e-01  -2.4136929961976278e-01  -3.1821595060593166e-01  -3.9199764407045523e-01  -4.6200377224072570e-01  -5.2756009726990483e-01  -5.8803524295272092e-01  -6.4284677393472356e-01  -6.9146680382361814e-01  -7.3342707815738895e-01  -7.6832348324870692e-01  -7.9581993746022917e-01  -8.1565162741788899e-01  -8.2762755798202481e-01  -8.3163239140867906e-01  -8.2762755798202414e-01  -8.1565162741788855e-01  -7.9581993746022917e-01  -7.6832348324870681e-01  -7.3342707815738906e-01  -6.9146680382361847e-01  -6.4284677393472367e-01  -5.8803524295272114e-01  -5.2756009726990505e-01  -4.6200377224072597e-01  -3.9199764407045573e-01  -3.1821595060593200e-01  -2.4136929961976311e-01  -1.6219782716354353e-01  -8.1464071950274553e-02  5.4365520394237961e-05  8.1572308283464651e-02  1.6230456044382502e-01  2.4147346395748950e-01  3.1831638164700565e-01  3.9209303408473561e-01  4.6209261930515910e-01  5.2764064630640461e-01  5.8810541596532639e-01  6.4290408633191187e-01  6.9150826335015525e-01  7.3344906304417989e-01  7.6832159746618123e-01  7.9578884455108179e-01  8.1558487113477451e-01  8.2751738692401977e-01  8.3146961230254524e-01  7.7301045336273699e-01  7.6933917783191041e-01  7.5824855380067524e-01  7.3984703243814753e-01  7.1431330045053554e-01  6.8189454731941335e-01  6.4290408633191032e-01  5.9771834945271551e-01  5.4677328057139263e-01  4.9056015782094486e-01  4.2962088245710406e-01  3.6454277824478026e-01  2.9595295093599094e-01  2.2451226216992329e-01  1.5090897606652737e-01  7.5852140010091079e-02  6.4763677944363858e-05  -7.5723137719265532e-02  -1.5078156875229973e-01  -2.2438757978944268e-01  -2.9583222588920033e-01  -3.6442739142128489e-01  -4.2951241458550016e-01  -4.9046044794542065e-01  -5.4668449365241278e-01  -5.9764305518166205e-01  -6.4284535110577701e-01  -6.8185604065805416e-01  -7.1429941554638565e-01  -7.3986301762498086e-01  -7.5830064756535887e-01  -7.6943473553729091e-01  -7.7315805105824131e-01  -7.6943473553729091e-01  -7.5830064756535864e-01  -7.3986301762498075e-01  -7.1429941554638565e-01  -6.8185604065805427e-01  -6.4284535110577690e-01  -5.9764305518166205e-01  -5.4668449365241312e-01  -4.9046044794542071e-01  -4.2951241458550027e-01  -3.6442739142128522e-01  -2.9583222588920027e-01  -2.2438757978944301e-01  -1.5078156875229973e-01  -7.5723137719265560e-02  6.4763677944770719e-05  7.5852140010091842e-02  1.5090897606652803e-01  2.2451226216992420e-01  2.9595295093599155e-01  3.6454277824478087e-01  4.2962088245710434e-01  4.9056015782094592e-01  5.4677328057139385e-01  5.9771834945271696e-01  6.4290408633191198e-01  6.8189454731941446e-01  7.1431330045053676e-01  7.3984703243814831e-01  7.5824855380067613e-01  7.6933917783191086e-01  7.7301045336273699e-01  7.0710678118654757e-01  7.0375104538559674e-01  6.9360841528618566e-01  6.7677801836049156e-01  6.5342324880885794e-01  6.2377018577856569e-01  5.8810541596532506e-01  5.4677328057139252e-01  5.0017257097062029e-01  4.4875270253517602e-01  3.9300940154205410e-01  3.3347994542771242e-01  2.7073800155519612e-01  2.0538811394217657e-01  1.3805989103611480e-01  6.9401950627633380e-02  7.5680383610278411e-05  -6.9251125732097671e-02  -1.3791069369664119e-01  -2.0524169628586708e-01  -2.7059561852723291e-01  -3.3334300033471531e-01  -3.9287949611323147e-01  -4.4863169289839555e-01  -5.0006263093614989e-01  -5.4667697348367283e-01  -5.8802577600052575e-01  -6.2371080876494012e-01  -6.5338839125749093e-01  -6.7677270136192558e-01  -6.9363852749546084e-01  -7.0382343714987283e-01  -7.0722934094860301e-01  -7.0382343714987305e-01  -6.9363852749546095e-01  -6.7677270136192524e-01  -6.5338839125749071e-01  -6.2371080876494001e-01  -5.8802577600052586e-01  -5.4667697348367283e-01  -5.0006263093615011e-01  -4.4863169289839550e-01  -3.9287949611323142e-01  -3.3334300033471537e-01  -2.7059561852723291e-01  -2.0524169628586708e-01  -1.3791069369664113e-01  -6.9251125732097671e-02  7.5680383610675256e-05  6.9401950627634046e-02  1.3805989103611549e-01  2.0538811394217737e-01  2.7073800155519678e-01  3.3347994542771331e-01  3.9300940154205471e-01  4.4875270253517652e-01  5.0017257097062140e-01  5.4677328057139385e-01  5.8810541596532651e-01  6.2377018577856680e-01  6.5342324880885871e-01  6.7677801836049256e-01  6.9360841528618677e-01  7.0375104538559752e-01  7.0710678118654757e-01  6.3439328416364549e-01  6.3138482186257516e-01  6.2228732251992369e-01  6.0718967085918329e-01  5.8623842058903564e-01  5.5963637759446161e-01  5.2764064630640384e-01  4.9056015782094503e-01  4.4875270253517580e-01  4.0262149452599061e-01  3.5261129948921188e-01  2.9920416255365512e-01  2.4291477647881773e-01  1.8428553449803381e-01  1.2388131531268380e-01  6.2284050452157569e-02  8.7126382242381145e-05  -6.2110324629823362e-02  -1.2370918980285321e-01  -1.8411614165178822e-01  -2.4274934869335285e-01  -2.9904407596173405e-01  -3.5245812132129523e-01  -4.0247703515564831e-01  -4.4861907310859267e-01  -4.9043983413216463e-01  -5.2753653913544529e-01  -5.5955190899569729e-01  -5.8617760455756207e-01  -6.0715719546935298e-01  -6.2228862924742234e-01  -6.3142617677649826e-01  -6.3448183549953296e-01  -6.3142617677649870e-01  -6.2228862924742256e-01  -6.0715719546935276e-01  -5.8617760455756174e-01  -5.5955190899569718e-01  -5.2753653913544563e-01  -4.9043983413216480e-01  -4.4861907310859289e-01  -4.0247703515564837e-01  -3.5245812132129500e-01  -2.9904407596173405e-01  -2.4274934869335285e-01  -1.8411614165178825e-01  -1.2370918980285317e-01  -6.2110324629823355e-02  8.7126382242739609e-05  6.2284050452158166e-02  1.2388131531268441e-01  1.8428553449803461e-01  2.4291477647881840e-01  2.9920416255365589e-01  3.5261129948921238e-01  4.0262149452599094e-01  4.4875270253517696e-01  4.9056015782094620e-01  5.2764064630640528e-01  5.5963637759446283e-01  5.8623842058903652e-01  6.0718967085918363e-01  6.2228732251992436e-01  6.3138482186257583e-01  6.3439328416364549e-01  5.5557023301960229e-01  5.5293757246668718e-01  5.4497240280990478e-01  5.3175253641999753e-01  5.1340629541345273e-01  4.9011127232067281e-01  4.6209261930515871e-01  4.2962088245710417e-01  3.9300940154205422e-01  3.5261129948921177e-01  3.0881608980565745e-01  2.6204593389030012e-01  2.1275158377124184e-01  1.6140804900212197e-01  1.0851002926081059e-01  5.4567156560105280e-02  9.9092885584411690e-05  -5.4369469489230847e-02  -1.0831385680072537e-01  -1.6121446301433531e-01  -2.1256175076819003e-01  -2.6186115581285629e-01  -3.0863784765394753e-01  -3.5244130049589667e-01  -3.9284963041891513e-01  -4.2947365697898443e-01  -4.6196065008070619e-01  -4.8999772600926467e-01  -5.1331485989142289e-01  -5.3168748555379819e-01  -5.4493865772412642e-01  -5.5294075573957768e-01  -5.5561671234488186e-01  -5.5294075573957779e-01  -5.4493865772412653e-01  -5.3168748555379819e-01  -5.1331485989142278e-01  -4.8999772600926467e-01  -4.6196065008070641e-01  -4.2947365697898487e-01  -3.9284963041891535e-01  -3.5244130049589678e-01  -3.0863784765394747e-01  -2.6186115581285635e-01  -2.1256175076819003e-01  -1.6121446301433534e-01  -1.0831385680072529e-01  -5.4369469489230868e-02  9.9092885584704425e-05  5.4567156560105780e-02  1.0851002926081109e-01  1.6140804900212252e-01  2.1275158377124243e-01  2.6204593389030090e-01  3.0881608980565806e-01  3.5261129948921255e-01  3.9300940154205510e-01  4.2962088245710528e-01  4.6209261930515988e-01  4.9011127232067392e-01  5.1340629541345340e-01  5.3175253641999809e-01  5.4497240280990511e-01  5.5293757246668762e-01  5.5557023301960229e-01  4.7139673682599781e-01  4.6916489478332984e-01  4.6240844873944542e-01  4.5119340933095703e-01  4.3562864736409496e-01  4.1586484297641346e-01  3.9209303408473517e-01  3.6454277824478049e-01  3.3347994542771264e-01  2.9920416255365534e-01  2.6204593389030001e-01  2.2236346456698028e-01  1.8053921739738632e-01  1.3697623587895985e-01  9.2094268590744557e-02  4.6325732207786963e-02  1.1155196621056302e-04  -4.6103080364773279e-02  -9.1872990127087564e-02  -1.3675730374201989e-01  -1.8032369170036894e-01  -2.2215252966538568e-01  -2.6184093756942550e-01  -2.9900665776338375e-01  -3.3329173483202829e-01  -3.6436596160276369e-01  -3.9193005813139292e-01  -4.1571855302418287e-01  -4.3550233932608096e-01  -4.5109088034263900e-01  -4.6233404413779750e-01  -4.6912354902878728e-01  -4.7139400614850224e-01  -4.6912354902878728e-01  -4.6233404413779750e-01  -4.5109088034263883e-01  -4.3550233932608118e-01  -4.1571855302418298e-01  -3.9193005813139337e-01  -3.6436596160276397e-01  -3.3329173483202862e-01  -2.9900665776338375e-01  -2.6184093756942561e-01  -2.2215252966538593e-01  -1.8032369170036897e-01  -1.3675730374201997e-01  -9.1872990127087564e-02  -4.6103080364773341e-02  1.1155196621079482e-04  4.6325732207787372e-02  9.2094268590744988e-02  1.3697623587896032e-01  1.8053921739738685e-01  2.2236346456698089e-01  2.6204593389030062e-01  2.9920416255365589e-01  3.3347994542771348e-01  3.6454277824478121e-01  3.9209303408473600e-01  4.1586484297641407e-01  4.3562864736409551e-01  4.5119340933095742e-01  4.6240844873944609e-01  4.6916489478333018e-01  4.7139673682599781e-01  3.8268343236508984e-01  3.8087365020295322e-01  3.7539076038103691e-01  3.6628835148641170e-01  3.5365480734898247e-01  3.3761245410686758e-01  3.1831638164700538e-01  2.9595295093599133e-01  2.7073800155519634e-01  2.4291477647881787e-01  2.1275158377124193e-01  1.8053921739738635e-01  1.4658816169174488e-01  1.1122560617301286e-01  7.4792299282153127e-02  3.7639271232405229e-02  1.2445746886633269e-04  -3.7390744771059567e-02  -7.4544953635328717e-02  -1.1098028007062674e-01  -1.4634577195703358e-01  -1.8030079176516170e-01  -2.1251829517551843e-01  -2.4268797905410358e-01  -2.7051926843818530e-01  -2.9574411373910425e-01  -3.1811957119950718e-01  -3.3743014173274438e-01  -3.5348984560200497e-01  -3.6614401294358656e-01  -3.7527077287796440e-01  -3.8078222685761393e-01  -3.8262529494391384e-01  -3.80782