<?xml version="1.0"?>
<VTKFile type="UnstructuredGrid"  version="0.1"  >
<UnstructuredGrid>
<Piece  NumberOfPoints="4225" NumberOfCells="4096">
<Points>
<DataArray  type="Float64"  NumberOfComponents="3"  format="ascii">0 0 0  0.015625 0 0  0.03125 0 0  0.046875 0 0  0.0625 0 0  0.078125 0 0  0.09375 0 0  0.109375 0 0  0.125 0 0  0.140625 0 0  0.15625 0 0  0.171875 0 0  0.1875 0 0  0.203125 0 0  0.21875 0 0  0.234375 0 0  0.25 0 0  0.265625 0 0  0.28125 0 0  0.296875 0 0  0.3125 0 0  0.328125 0 0  0.34375 0 0  0.359375 0 0  0.375 0 0  0.390625 0 0  0.40625 0 0  0.421875 0 0  0.4375 0 0  0.453125 0 0  0.46875 0 0  0.484375 0 0  0.5 0 0  0.515625 0 0  0.53125 0 0  0.546875 0 0  0.5625 0 0  0.578125 0 0  0.59375 0 0  0.609375 0 0  0.625 0 0  0.640625 0 0  0.65625 0 0  0.671875 0 0  0.6875 0 0  0.703125 0 0  0.71875 0 0  0.734375 0 0  0.75 0 0  0.765625 0 0  0.78125 0 0  0.796875 0 0  0.8125 0 0  0.828125 0 0  0.84375 0 0  0.859375 0 0  0.875 0 0  0.890625 0 0  0.90625 0 0  0.921875 0 0  0.9375 0 0  0.953125 0 0  0.96875 0 0  0.984375 0 0  1 0 0  0 0.015625 0  0.015625 0.015625 0  0.03125 0.015625 0  0.046875 0.015625 0  0.0625 0.015625 0  0.078125 0.015625 0  0.09375 0.015625 0  0.109375 0.015625 0  0.125 0.015625 0  0.140625 0.015625 0  0.15625 0.015625 0  0.171875 0.015625 0  0.1875 0.015625 0  0.203125 0.015625 0  0.21875 0.015625 0  0.234375 0.015625 0  0.25 0.015625 0  0.265625 0.015625 0  0.28125 0.015625 0  0.296875 0.015625 0  0.3125 0.015625 0  0.328125 0.015625 0  0.34375 0.015625 0  0.359375 0.015625 0  0.375 0.015625 0  0.390625 0.015625 0  0.40625 0.015625 0  0.421875 0.015625 0  0.4375 0.015625 0  0.453125 0.015625 0  0.46875 0.015625 0  0.484375 0.015625 0  0.5 0.015625 0  0.515625 0.015625 0  0.53125 0.015625 0  0.546875 0.015625 0  0.5625 0.015625 0  0.578125 0.015625 0  0.59375 0.015625 0  0.609375 0.015625 0  0.625 0.015625 0  0.640625 0.015625 0  0.65625 0.015625 0  0.671875 0.015625 0  0.6875 0.015625 0  0.703125 0.015625 0  0.71875 0.015625 0  0.734375 0.015625 0  0.75 0.015625 0  0.765625 0.015625 0  0.78125 0.015625 0  0.796875 0.015625 0  0.8125 0.015625 0  0.828125 0.015625 0  0.84375 0.015625 0  0.859375 0.015625 0  0.875 0.015625 0  0.890625 0.015625 0  0.90625 0.015625 0  0.921875 0.015625 0  0.9375 0.015625 0  0.953125 0.015625 0  0.96875 0.015625 0  0.984375 0.015625 0  1 0.015625 0  0 0.03125 0  0.015625 0.03125 0  0.03125 0.03125 0  0.046875 0.03125 0  0.0625 0.03125 0  0.078125 0.03125 0  0.09375 0.03125 0  0.109375 0.03125 0  0.125 0.03125 0  0.140625 0.03125 0  0.15625 0.03125 0  0.171875 0.03125 0  0.1875 0.03125 0  0.203125 0.03125 0  0.21875 0.03125 0  0.234375 0.03125 0  0.25 0.03125 0  0.265625 0.03125 0  0.28125 0.03125 0  0.296875 0.03125 0  0.3125 0.03125 0  0.328125 0.03125 0  0.34375 0.03125 0  0.359375 0.03125 0  0.375 0.03125 0  0.390625 0.03125 0  0.40625 0.03125 0  0.421875 0.03125 0  0.4375 0.03125 0  0.453125 0.03125 0  0.46875 0.03125 0  0.484375 0.03125 0  0.5 0.03125 0  0.515625 0.03125 0  0.53125 0.03125 0  0.546875 0.03125 0  0.5625 0.03125 0  0.578125 0.03125 0  0.59375 0.03125 0  0.609375 0.03125 0  0.625 0.03125 0  0.640625 0.03125 0  0.65625 0.03125 0  0.671875 0.03125 0  0.6875 0.03125 0  0.703125 0.03125 0  0.71875 0.03125 0  0.734375 0.03125 0  0.75 0.03125 0  0.765625 0.03125 0  0.78125 0.03125 0  0.796875 0.03125 0  0.8125 0.03125 0  0.828125 0.03125 0  0.84375 0.03125 0  0.859375 0.03125 0  0.875 0.03125 0  0.890625 0.03125 0  0.90625 0.03125 0  0.921875 0.03125 0  0.9375 0.03125 0  0.953125 0.03125 0  0.96875 0.03125 0  0.984375 0.03125 0  1 0.03125 0  0 0.046875 0  0.015625 0.046875 0  0.03125 0.046875 0  0.046875 0.046875 0  0.0625 0.046875 0  0.078125 0.046875 0  0.09375 0.046875 0  0.109375 0.046875 0  0.125 0.046875 0  0.140625 0.046875 0  0.15625 0.046875 0  0.171875 0.046875 0  0.1875 0.046875 0  0.203125 0.046875 0  0.21875 0.046875 0  0.234375 0.046875 0  0.25 0.046875 0  0.265625 0.046875 0  0.28125 0.046875 0  0.296875 0.046875 0  0.3125 0.046875 0  0.328125 0.046875 0  0.34375 0.046875 0  0.359375 0.046875 0  0.375 0.046875 0  0.390625 0.046875 0  0.40625 0.046875 0  0.421875 0.046875 0  0.4375 0.046875 0  0.453125 0.046875 0  0.46875 0.046875 0  0.484375 0.046875 0  0.5 0.046875 0  0.515625 0.046875 0  0.53125 0.046875 0  0.546875 0.046875 0  0.5625 0.046875 0  0.578125 0.046875 0  0.59375 0.046875 0  0.609375 0.046875 0  0.625 0.046875 0  0.640625 0.046875 0  0.65625 0.046875 0  0.671875 0.046875 0  0.6875 0.046875 0  0.703125 0.046875 0  0.71875 0.046875 0  0.734375 0.046875 0  0.75 0.046875 0  0.765625 0.046875 0  0.78125 0.046875 0  0.796875 0.046875 0  0.8125 0.046875 0  0.828125 0.046875 0  0.84375 0.046875 0  0.859375 0.046875 0  0.875 0.046875 0  0.890625 0.046875 0  0.90625 0.046875 0  0.921875 0.046875 0  0.9375 0.046875 0  0.953125 0.046875 0  0.96875 0.046875 0  0.984375 0.046875 0  1 0.046875 0  0 0.0625 0  0.015625 0.0625 0  0.03125 0.0625 0  0.046875 0.0625 0  0.0625 0.0625 0  0.078125 0.0625 0  0.09375 0.0625 0  0.109375 0.0625 0  0.125 0.0625 0  0.140625 0.0625 0  0.15625 0.0625 0  0.171875 0.0625 0  0.1875 0.0625 0  0.203125 0.0625 0  0.21875 0.0625 0  0.234375 0.0625 0  0.25 0.0625 0  0.265625 0.0625 0  0.28125 0.0625 0  0.296875 0.0625 0  0.3125 0.0625 0  0.328125 0.0625 0  0.34375 0.0625 0  0.359375 0.0625 0  0.375 0.0625 0  0.390625 0.0625 0  0.40625 0.0625 0  0.421875 0.0625 0  0.4375 0.0625 0  0.453125 0.0625 0  0.46875 0.0625 0  0.484375 0.0625 0  0.5 0.0625 0  0.515625 0.0625 0  0.53125 0.0625 0  0.546875 0.0625 0  0.5625 0.0625 0  0.578125 0.0625 0  0.59375 0.0625 0  0.609375 0.0625 0  0.625 0.0625 0  0.640625 0.0625 0  0.65625 0.0625 0  0.671875 0.0625 0  0.6875 0.0625 0  0.703125 0.0625 0  0.71875 0.0625 0  0.734375 0.0625 0  0.75 0.0625 0  0.765625 0.0625 0  0.78125 0.0625 0  0.796875 0.0625 0  0.8125 0.0625 0  0.828125 0.0625 0  0.84375 0.0625 0  0.859375 0.0625 0  0.875 0.0625 0  0.890625 0.0625 0  0.90625 0.0625 0  0.921875 0.0625 0  0.9375 0.0625 0  0.953125 0.0625 0  0.96875 0.0625 0  0.984375 0.0625 0  1 0.0625 0  0 0.078125 0  0.015625 0.078125 0  0.03125 0.078125 0  0.046875 0.078125 0  0.0625 0.078125 0  0.078125 0.078125 0  0.09375 0.078125 0  0.109375 0.078125 0  0.125 0.078125 0  0.140625 0.078125 0  0.15625 0.078125 0  0.171875 0.078125 0  0.1875 0.078125 0  0.203125 0.078125 0  0.21875 0.078125 0  0.234375 0.078125 0  0.25 0.078125 0  0.265625 0.078125 0  0.28125 0.078125 0  0.296875 0.078125 0  0.3125 0.078125 0  0.328125 0.078125 0  0.34375 0.078125 0  0.359375 0.078125 0  0.375 0.078125 0  0.390625 0.078125 0  0.40625 0.078125 0  0.421875 0.078125 0  0.4375 0.078125 0  0.453125 0.078125 0  0.46875 0.078125 0  0.484375 0.078125 0  0.5 0.078125 0  0.515625 0.078125 0  0.53125 0.078125 0  0.546875 0.078125 0  0.5625 0.078125 0  0.578125 0.078125 0  0.59375 0.078125 0  0.609375 0.078125 0  0.625 0.078125 0  0.640625 0.078125 0  0.65625 0.078125 0  0.671875 0.078125 0  0.6875 0.078125 0  0.703125 0.078125 0  0.71875 0.078125 0  0.734375 0.078125 0  0.75 0.078125 0  0.765625 0.078125 0  0.78125 0.078125 0  0.796875 0.078125 0  0.8125 0.078125 0  0.828125 0.078125 0  0.84375 0.078125 0  0.859375 0.078125 0  0.875 0.078125 0  0.890625 0.078125 0  0.90625 0.078125 0  0.921875 0.078125 0  0.9375 0.078125 0  0.953125 0.078125 0  0.96875 0.078125 0  0.984375 0.078125 0  1 0.078125 0  0 0.09375 0  0.015625 0.09375 0  0.03125 0.09375 0  0.046875 0.09375 0  0.0625 0.09375 0  0.078125 0.09375 0  0.09375 0.09375 0  0.109375 0.09375 0  0.125 0.09375 0  0.140625 0.09375 0  0.15625 0.09375 0  0.171875 0.09375 0  0.1875 0.09375 0  0.203125 0.09375 0  0.21875 0.09375 0  0.234375 0.09375 0  0.25 0.09375 0  0.265625 0.09375 0  0.28125 0.09375 0  0.296875 0.09375 0  0.3125 0.09375 0  0.328125 0.09375 0  0.34375 0.09375 0  0.359375 0.09375 0  0.375 0.09375 0  0.390625 0.09375 0  0.40625 0.09375 0  0.421875 0.09375 0  0.4375 0.09375 0  0.453125 0.09375 0  0.46875 0.09375 0  0.484375 0.09375 0  0.5 0.09375 0  0.515625 0.09375 0  0.53125 0.09375 0  0.546875 0.09375 0  0.5625 0.09375 0  0.578125 0.09375 0  0.59375 0.09375 0  0.609375 0.09375 0  0.625 0.09375 0  0.640625 0.09375 0  0.65625 0.09375 0  0.671875 0.09375 0  0.6875 0.09375 0  0.703125 0.09375 0  0.71875 0.09375 0  0.734375 0.09375 0  0.75 0.09375 0  0.765625 0.09375 0  0.78125 0.09375 0  0.796875 0.09375 0  0.8125 0.09375 0  0.828125 0.09375 0  0.84375 0.09375 0  0.859375 0.09375 0  0.875 0.09375 0  0.890625 0.09375 0  0.90625 0.09375 0  0.921875 0.09375 0  0.9375 0.09375 0  0.953125 0.09375 0  0.96875 0.09375 0  0.984375 0.09375 0  1 0.09375 0  0 0.109375 0  0.015625 0.109375 0  0.03125 0.109375 0  0.046875 0.109375 0  0.0625 0.109375 0  0.078125 0.109375 0  0.09375 0.109375 0  0.109375 0.109375 0  0.125 0.109375 0  0.140625 0.109375 0  0.15625 0.109375 0  0.171875 0.109375 0  0.1875 0.109375 0  0.203125 0.109375 0  0.21875 0.109375 0  0.234375 0.109375 0  0.25 0.109375 0  0.265625 0.109375 0  0.28125 0.109375 0  0.296875 0.109375 0  0.3125 0.109375 0  0.328125 0.109375 0  0.34375 0.109375 0  0.359375 0.109375 0  0.375 0.109375 0  0.390625 0.109375 0  0.40625 0.109375 0  0.421875 0.109375 0  0.4375 0.109375 0  0.453125 0.109375 0  0.46875 0.109375 0  0.484375 0.109375 0  0.5 0.109375 0  0.515625 0.109375 0  0.53125 0.109375 0  0.546875 0.109375 0  0.5625 0.109375 0  0.578125 0.109375 0  0.59375 0.109375 0  0.609375 0.109375 0  0.625 0.109375 0  0.640625 0.109375 0  0.65625 0.109375 0  0.671875 0.109375 0  0.6875 0.109375 0  0.703125 0.109375 0  0.71875 0.109375 0  0.734375 0.109375 0  0.75 0.109375 0  0.765625 0.109375 0  0.78125 0.109375 0  0.796875 0.109375 0  0.8125 0.109375 0  0.828125 0.109375 0  0.84375 0.109375 0  0.859375 0.109375 0  0.875 0.109375 0  0.890625 0.109375 0  0.90625 0.109375 0  0.921875 0.109375 0  0.9375 0.109375 0  0.953125 0.109375 0  0.96875 0.109375 0  0.984375 0.109375 0  1 0.109375 0  0 0.125 0  0.015625 0.125 0  0.03125 0.125 0  0.046875 0.125 0  0.0625 0.125 0  0.078125 0.125 0  0.09375 0.125 0  0.109375 0.125 0  0.125 0.12
[...]
<PointData  Scalars="f_10096"> 
<DataArray  type="Float64"  Name="f_10096"  format="ascii">1.0000000000000000e+00  9.9518472667219693e-01  9.8078528040323043e-01  9.5694033573220882e-01  9.2387953251128674e-01  8.8192126434835505e-01  8.3146961230254524e-01  7.7301045336273699e-01  7.0710678118654757e-01  6.3439328416364549e-01  5.5557023301960229e-01  4.7139673682599781e-01  3.8268343236508984e-01  2.9028467725446233e-01  1.9509032201612833e-01  9.8017140329560770e-02  6.1232339957367660e-17  -9.8017140329560645e-02  -1.9509032201612819e-01  -2.9028467725446216e-01  -3.8268343236508973e-01  -4.7139673682599770e-01  -5.5557023301960196e-01  -6.3439328416364538e-01  -7.0710678118654746e-01  -7.7301045336273699e-01  -8.3146961230254535e-01  -8.8192126434835494e-01  -9.2387953251128674e-01  -9.5694033573220882e-01  -9.8078528040323043e-01  -9.9518472667219682e-01  -1.0000000000000000e+00  -9.9518472667219682e-01  -9.8078528040323043e-01  -9.5694033573220894e-01  -9.2387953251128685e-01  -8.8192126434835505e-01  -8.3146961230254546e-01  -7.7301045336273710e-01  -7.0710678118654768e-01  -6.3439328416364593e-01  -5.5557023301960218e-01  -4.7139673682599786e-01  -3.8268343236509034e-01  -2.9028467725446244e-01  -1.9509032201612866e-01  -9.8017140329560451e-02  -1.8369701987210297e-16  9.8017140329560090e-02  1.9509032201612830e-01  2.9028467725446205e-01  3.8268343236509000e-01  4.7139673682599759e-01  5.5557023301960184e-01  6.3439328416364560e-01  7.0710678118654735e-01  7.7301045336273666e-01  8.3146961230254524e-01  8.8192126434835483e-01  9.2387953251128652e-01  9.5694033573220894e-01  9.8078528040323032e-01  9.9518472667219693e-01  1.0000000000000000e+00  9.9518472667219693e-01  9.9039265483008498e-01  9.7606254491093669e-01  9.5233241965132698e-01  9.1943081265012072e-01  8.7767458435126189e-01  8.2746587004593664e-01  7.6928820709231516e-01  7.0370187818287455e-01  6.3133851551466036e-01  5.5289501782541273e-01  4.6912683887747481e-01  3.8084071202491176e-01  2.8888688093019682e-01  1.9415091125287123e-01  9.7545162168088770e-02  -1.5102812460266570e-10  -9.7545162468255189e-02  -1.9415091154729031e-01  -2.8888688121477407e-01  -3.8084071229514127e-01  -4.6912683912824310e-01  -5.5289501805075880e-01  -6.3133851570747357e-01  -7.0370187833450049e-01  -7.6928820719200663e-01  -8.2746587008003925e-01  -8.7767458430190637e-01  -9.1943081249282976e-01  -9.5233241934909296e-01  -9.7606254441084717e-01  -9.9039265360156814e-01  -9.9518474013612379e-01  -9.9039265360156703e-01  -9.7606254441084539e-01  -9.5233241934908885e-01  -9.1943081249282477e-01  -8.7767458430190048e-01  -8.2746587008003292e-01  -7.6928820719199886e-01  -7.0370187833449593e-01  -6.3133851570747002e-01  -5.5289501805075614e-01  -4.6912683912824010e-01  -3.8084071229513905e-01  -2.8888688121477157e-01  -1.9415091154728881e-01  -9.7545162468253996e-02  -1.5102751676167857e-10  9.7545162168088728e-02  1.9415091125287098e-01  2.8888688093019660e-01  3.8084071202491099e-01  4.6912683887747375e-01  5.5289501782541273e-01  6.3133851551465936e-01  7.0370187818287455e-01  7.6928820709231605e-01  8.2746587004593586e-01  8.7767458435126000e-01  9.1943081265011639e-01  9.5233241965132021e-01  9.7606254491093236e-01  9.9039265483008232e-01  9.9518472667219693e-01  9.8078528040323043e-01  9.7606254491093702e-01  9.6193977904118089e-01  9.3855300766964911e-01  9.0612745785720694e-01  8.6497540535291040e-01  8.1549316689981821e-01  7.5815728349145017e-01  6.9351993101916953e-01  6.2220360251516349e-01  5.4489511320348183e-01  4.6233898609351431e-01  3.7533028181611439e-01  2.8470694175489669e-01  1.9134171821250481e-01  9.6133769328740640e-02  -3.0393327233931598e-10  -9.6133769932904345e-02  -1.9134171880540873e-01  -2.8470694232852245e-01  -3.7533028236164900e-01  -4.6233898660096390e-01  -5.4489511366121901e-01  -6.2220360290935495e-01  -6.9351993133303824e-01  -7.5815728370427871e-01  -8.1549316698552932e-01  -8.6497540527793648e-01  -9.0612745757710378e-01  -9.3855300712346601e-01  -9.6193977814933773e-01  -9.7606254326527286e-01  -9.8078529252293767e-01  -9.7606254326527164e-01  -9.6193977814933507e-01  -9.3855300712345924e-01  -9.0612745757709523e-01  -8.6497540527792660e-01  -8.1549316698551910e-01  -7.5815728370426894e-01  -6.9351993133303114e-01  -6.2220360290934928e-01  -5.4489511366121413e-01  -4.6233898660095907e-01  -3.7533028236164406e-01  -2.8470694232851851e-01  -1.9134171880540571e-01  -9.6133769932902124e-02  -3.0393209612607440e-10  9.6133769328740945e-02  1.9134171821250462e-01  2.8470694175489514e-01  3.7533028181611228e-01  4.6233898609351293e-01  5.4489511320348138e-01  6.2220360251516338e-01  6.9351993101916942e-01  7.5815728349144962e-01  8.1549316689981677e-01  8.6497540535290729e-01  9.0612745785720183e-01  9.3855300766964100e-01  9.6193977904117434e-01  9.7606254491093269e-01  9.8078528040323043e-01  9.5694033573220882e-01  9.5233241965132520e-01  9.3855300766964711e-01  9.1573481760085063e-01  8.8409760075132271e-01  8.4394604079456459e-01  7.9566681918155924e-01  7.3972489119325113e-01  6.7665900816562463e-01  6.0707652901877973e-01  5.3164757105775984e-01  4.5109855637606583e-01  3.6620521601342354e-01  2.7778511924156407e-01  1.8668979992501714e-01  9.3796555784360233e-02  -4.6051650535405142e-10  -9.3796556700026568e-02  -1.8668980082436790e-01  -2.7778512011299039e-01  -3.6620521684418084e-01  -4.5109855715173203e-01  -5.3164757176160160e-01  -6.0707652963096081e-01  -6.7665900866222251e-01  -7.3972489154495313e-01  -7.9566681935190608e-01  -8.4394604073751589e-01  -8.8409760040787899e-01  -9.1573481689440517e-01  -9.3855300650774842e-01  -9.5233241760829956e-01  -9.5694034693459873e-01  -9.5233241760829745e-01  -9.3855300650774542e-01  -9.1573481689439806e-01  -8.8409760040786878e-01  -8.4394604073750490e-01  -7.9566681935189532e-01  -7.3972489154494270e-01  -6.7665900866221318e-01  -6.0707652963095260e-01  -5.3164757176159461e-01  -4.5109855715172559e-01  -3.6620521684417445e-01  -2.7778512011298456e-01  -1.8668980082436384e-01  -9.3796556700023750e-02  -4.6051491486526419e-10  9.3796555784360677e-02  1.8668979992501691e-01  2.7778511924156291e-01  3.6620521601342099e-01  4.5109855637606300e-01  5.3164757105775939e-01  6.0707652901877951e-01  6.7665900816562419e-01  7.3972489119324991e-01  7.9566681918155702e-01  8.4394604079456070e-01  8.8409760075131749e-01  9.1573481760084352e-01  9.3855300766964156e-01  9.5233241965132109e-01  9.5694033573220871e-01  9.2387953251128674e-01  9.1943081265011872e-01  9.0612745785720505e-01  8.8409760075132215e-01  8.5355340057038220e-01  8.1478901463893028e-01  7.6817776516291303e-01  7.1416854393835705e-01  6.5328148927697582e-01  5.8610297678908951e-01  5.1327997226530397e-01  4.3551380104178455e-01  3.5355339385351037e-01  2.6818807422161250e-01  1.8023995683616487e-01  9.0556030142144250e-02  -6.2243077828498023e-10  -9.0556031380189458e-02  -1.8023995805349066e-01  -2.6818807540349388e-01  -3.5355339498380706e-01  -4.3551380210227575e-01  -5.1327997323491770e-01  -5.8610297764296770e-01  -6.5328148998532554e-01  -7.1416854446499300e-01  -7.6817776546337779e-01  -8.1478901465805420e-01  -8.5355340023916415e-01  -8.8409759998293336e-01  -9.0612745654877402e-01  -9.1943081037528473e-01  -9.2387954289280660e-01  -9.1943081037528307e-01  -9.0612745654877036e-01  -8.8409759998292647e-01  -8.5355340023915616e-01  -8.1478901465804510e-01  -7.6817776546336736e-01  -7.1416854446498335e-01  -6.5328148998531665e-01  -5.8610297764295949e-01  -5.1327997323491026e-01  -4.3551380210226903e-01  -3.5355339498380106e-01  -2.6818807540348855e-01  -1.8023995805348689e-01  -9.0556031380186572e-02  -6.2242887054837693e-10  9.0556030142145208e-02  1.8023995683616478e-01  2.6818807422161134e-01  3.5355339385350870e-01  4.3551380104178289e-01  5.1327997226530375e-01  5.8610297678908840e-01  6.5328148927697494e-01  7.1416854393835671e-01  7.6817776516291092e-01  8.1478901463892717e-01  8.5355340057037876e-01  8.8409760075131694e-01  9.0612745785720084e-01  9.1943081265011573e-01  9.2387953251128674e-01  8.8192126434835505e-01  8.7767458435126078e-01  8.6497540535290862e-01  8.4394604079456315e-01  8.1478901463892883e-01  7.7778512496659469e-01  7.3329073944207790e-01  6.8173436330383086e-01  6.2361251262372397e-01  5.5948493258522991e-01  4.8996920683077766e-01  4.1573480979323396e-01  3.3749665929078909e-01  2.5600823147727869e-01  1.7205430445471387e-01  8.6443400430985751e-02  -7.9111680247066417e-10  -8.6443402005220937e-02  -1.7205430600464244e-01  -2.5600823298564607e-01  -3.3749666073871748e-01  -4.1573481115946970e-01  -4.8996920809083067e-01  -5.5948493371035590e-01  -6.2361251357970138e-01  -6.8173436404945764e-01  -7.3329073992731064e-01  -7.7778512513025089e-01  -8.1478901440588547e-01  -8.4394604007227270e-01  -8.6497540403351436e-01  -8.7767458201892801e-01  -8.8192127400248777e-01  -8.7767458201892723e-01  -8.6497540403351114e-01  -8.4394604007226792e-01  -8.1478901440587903e-01  -7.7778512513024223e-01  -7.3329073992730143e-01  -6.8173436404944787e-01  -6.2361251357969338e-01  -5.5948493371034824e-01  -4.8996920809082356e-01  -4.1573481115946331e-01  -3.3749666073871182e-01  -2.5600823298564146e-01  -1.7205430600463881e-01  -8.6443402005217995e-02  -7.9111472955469378e-10  8.6443400430986972e-02  1.7205430445471412e-01  2.5600823147727825e-01  3.3749665929078837e-01  4.1573480979323341e-01  4.8996920683077722e-01  5.5948493258522869e-01  6.2361251262372219e-01  6.8173436330382986e-01  7.3329073944207668e-01  7.7778512496659269e-01  8.1478901463892750e-01  8.4394604079456037e-01  8.6497540535290629e-01  8.7767458435125889e-01  8.8192126434835505e-01  8.3146961230254524e-01  8.2746587004593641e-01  8.1549316689981843e-01  7.9566681918155946e-01  7.6817776516291258e-01  7.3329073944207668e-01  6.9134172312720588e-01  6.4273470815998379e-01  5.8793780665175299e-01  5.2747874270750228e-01  4.6193977015381865e-01  3.9195206511587055e-01  3.1818964744597350e-01  2.4136288954369847e-01  1.6221167508112541e-01  8.1498273518450917e-02  -9.6774996392145248e-10  -8.1498275445079052e-02  -1.6221167698079933e-01  -2.4136289139730674e-01  -3.1818964923264559e-01  -3.9195206681217254e-01  -4.6193977173285000e-01  -5.2747874413784890e-01  -5.8793780789625394e-01  -6.4273470917426379e-01  -6.9134172385792192e-01  -7.3329073982483406e-01  -7.6817776511981184e-01  -7.9566681861826072e-01  -8.1549316570807917e-01  -8.2746586782870113e-01  -8.3146962131381641e-01  -8.2746586782870124e-01  -8.1549316570807651e-01  -7.9566681861825572e-01  -7.6817776511980640e-01  -7.3329073982482673e-01  -6.9134172385791415e-01  -6.4273470917425490e-01  -5.8793780789624606e-01  -5.2747874413784235e-01  -4.6193977173284440e-01  -3.9195206681216638e-01  -3.1818964923264020e-01  -2.4136289139730246e-01  -1.6221167698079586e-01  -8.1498275445076221e-02  -9.6774777450838816e-10  8.1498273518452388e-02  1.6221167508112611e-01  2.4136288954369872e-01  3.1818964744597389e-01  3.9195206511587033e-01  4.6193977015381793e-01  5.2747874270750039e-01  5.8793780665175033e-01  6.4273470815998124e-01  6.9134172312720388e-01  7.3329073944207623e-01  7.6817776516291136e-01  7.9566681918155691e-01  8.1549316689981599e-01  8.2746587004593530e-01  8.3146961230254524e-01  7.7301045336273688e-01  7.6928820709231438e-01  7.5815728349145106e-01  7.3972489119325291e-01  7.1416854393835727e-01  6.8173436330382975e-01  6.4273470815998335e-01  5.9754516648882006e-01  5.4660093826598222e-01  4.9039264424671358e-01  4.2946160101944997e-01  3.6439460783084948e-01  2.9581829538799836e-01  2.2439309106192115e-01  1.5080685861078080e-01  7.5768273675699285e-02  -1.1531989961624395e-09  -7.5768275972688370e-02  -1.5080686087919007e-01  -2.2439309328150914e-01  -2.9581829753669647e-01  -3.6439460988394401e-01  -4.2946160294867064e-01  -4.9039264601919952e-01  -5.4660093984309055e-01  -5.9754516782474987e-01  -6.4273470920017117e-01  -6.8173436398311527e-01  -7.1416854417889541e-01  -7.3972489090208982e-01  -7.5815728256337944e-01  -7.6928820515498963e-01  -7.7301046180763922e-01  -7.6928820515498919e-01  -7.5815728256337700e-01  -7.3972489090208715e-01  -7.1416854417888975e-01  -6.8173436398310916e-01  -6.4273470920016451e-01  -5.9754516782474143e-01  -5.4660093984308333e-01  -4.9039264601919402e-01  -4.2946160294866559e-01  -3.6439460988393918e-01  -2.9581829753669170e-01  -2.2439309328150475e-01  -1.5080686087918627e-01  -7.5768275972685484e-02  -1.1531967512598340e-09  7.5768273675700784e-02  1.5080685861078177e-01  2.2439309106192182e-01  2.9581829538799903e-01  3.6439460783085015e-01  4.2946160101944997e-01  4.9039264424671158e-01  5.4660093826597955e-01  5.9754516648881728e-01  6.4273470815998102e-01  6.8173436330382842e-01  7.1416854393835616e-01  7.3972489119324969e-01  7.5815728349144862e-01  7.6928820709231494e-01  7.7301045336273699e-01  7.0710678118654757e-01  7.0370187818287466e-01  6.9351993101917153e-01  6.7665900816562619e-01  6.5328148927697582e-01  6.2361251262372319e-01  5.8793780665175155e-01  5.4660093826598144e-01  5.0000000409291323e-01  4.4858379659223391e-01  3.9284748193982733e-01  3.3332783130656962e-01  2.7059805145829618e-01  2.0526226446110393e-01  1.3794968965543300e-01  6.9308583929707859e-02  -1.3479984816656400e-09  -6.9308586616109558e-02  -1.3794969231269397e-01  -2.0526226706860293e-01  -2.7059805399358339e-01  -3.3332783374455605e-01  -3.9284748425190258e-01  -4.4858379874527354e-01  -5.0000000604816819e-01  -5.4660093997781622e-01  -5.8793780806622531e-01  -6.2361251367699866e-01  -6.5328148989358203e-01  -6.7665900825649083e-01  -6.9351993048457927e-01  -7.0370187667977124e-01  -7.0710678913424641e-01  -7.0370187667977058e-01  -6.9351993048457627e-01  -6.7665900825648562e-01  -6.5328148989357659e-01  -6.2361251367699289e-01  -5.8793780806621843e-01  -5.4660093997780912e-01  -5.0000000604816164e-01  -4.4858379874526844e-01  -3.9284748425189786e-01  -3.3332783374455155e-01  -2.7059805399357872e-01  -2.0526226706859865e-01  -1.3794969231269030e-01  -6.9308586616106643e-02  -1.3479963180892488e-09  6.9308583929709192e-02  1.3794968965543380e-01  2.0526226446110418e-01  2.7059805145829668e-01  3.3332783130656973e-01  3.9284748193982716e-01  4.4858379659223258e-01  5.0000000409291112e-01  5.4660093826597922e-01  5.8793780665175033e-01  6.2361251262372108e-01  6.5328148927697394e-01  6.7665900816562330e-01  6.9351993101916898e-01  7.0370187818287422e-01  7.0710678118654757e-01  6.3439328416364549e-01  6.3133851551465969e-01  6.2220360251516427e-01  6.0707652901878051e-01  5.8610297678908874e-01  5.5948493258522858e-01  5.2747874270750039e-01  4.9039264424671114e-01  4.4858379659223196e-01  4.0245484179164692e-01  3.5245002688752525e-01  2.9905092557535790e-01  2.4277180038542814e-01  1.8415465005335510e-01  1.2376398977583029e-01  6.2181414620549692e-02  -1.5523343674295811e-09  -6.2181417715790083e-02  -1.2376399284243927e-01  -1.8415465307108167e-01  -2.4277180333224396e-01  -2.9905092842668368e-01  -3.5245002961539373e-01  -4.0245484436378143e-01  -4.4858379897103190e-01  -4.9039264638812907e-01  -5.2747874455980437e-01  -5.5948493408765798e-01  -5.8610297787041710e-01  -6.0707652959573877e-01  -6.2220360249533169e-01  -6.3133851458796919e-01  -6.3439329167659975e-01  -6.3133851458796753e-01  -6.2220360249532813e-01  -6.0707652959573299e-01  -5.8610297787040988e-01  -5.5948493408765054e-01  -5.2747874455979726e-01  -4.9039264638812124e-01  -4.4858379897102579e-01  -4.0245484436377621e-01  -3.5245002961538902e-01  -2.9905092842667924e-01  -2.4277180333223988e-01  -1.8415465307107728e-01  -1.2376399284243565e-01  -6.2181417715787245e-02  -1.5523323357182046e-09  6.2181414620550921e-02  1.2376398977583089e-01  1.8415465005335543e-01  2.4277180038542850e-01  2.9905092557535762e-01  3.5245002688752541e-01  4.0245484179164648e-01  4.4858379659223196e-01  4.9039264424671081e-01  5.2747874270749917e-01  5.5948493258522658e-01  5.8610297678908674e-01  6.0707652901877818e-01  6.2220360251516293e-01  6.3133851551465980e-01  6.3439328416364549e-01  5.5557023301960229e-01  5.5289501782541184e-01  5.4489511320348083e-01  5.3164757105775984e-01  5.1327997226530286e-01  4.8996920683077588e-01  4.6193977015381676e-01  4.2946160101944825e-01  3.9284748193982588e-01  3.5245002688752453e-01  3.0865828543007423e-01  2.6189399596979668e-01  2.1260752417229500e-01  1.6127352569876272e-01  1.0838637501236624e-01  5.4455404281796779e-02  -1.7660411048441462e-09  -5.4455407804962365e-02  -1.0838637850845306e-01  -1.6127352914861620e-01  -2.1260752755508042e-01  -2.6189399926227785e-01  -3.0865828860584338e-01  -3.5245002991616525e-01  -3.9284748478600900e-01  -4.2946160364195313e-01  -4.6193977250447249e-01  -4.8996920885333761e-01  -5.1327997389428703e-01  -5.3164757221718462e-01  -5.4489511380955180e-01  -5.5289501760409709e-01  -5.5557024015413303e-01  -5.5289501760409443e-01  -5.4489511380954780e-01  -5.3164757221717851e-01  -5.1327997389428048e-01  -4.8996920885333073e-01  -4.6193977250446511e-01  -4.2946160364194519e-01  -3.9284748478600279e-01  -3.5245002991615959e-01  -3.0865828860583877e-01  -2.6189399926227341e-01  -2.1260752755507570e-01  -1.6127352914861201e-01  -1.0838637850844991e-01  -5.4455407804959839e-02  -1.7660393115933991e-09  5.4455404281797917e-02  1.0838637501236686e-01  1.6127352569876319e-01  2.1260752417229484e-01  2.6189399596979640e-01  3.0865828543007490e-01  3.5245002688752497e-01  3.9284748193982627e-01  4.2946160101944897e-01  4.6193977015381676e-01  4.8996920683077522e-01  5.1327997226530175e-01  5.3164757105775806e-01  5.4489511320348083e-01  5.5289501782541217e-01  5.5557023301960229e-01  4.7139673682599781e-01  4.6912683887747253e-01  4.6233898609351182e-01  4.5109855637606272e-01  4.3551380104178211e-01  4.1573480979323185e-01  3.9195206511586878e-01  3.6439460783084815e-01  3.3332783130656785e-01  2.9905092557535662e-01  2.6189399596979573e-01  2.2221488402779929e-01  1.8039572128286727e-01  1.3683924912841536e-01  9.1964940197887909e-02  4.6204958613897125e-02  -1.9886099626013822e-09  -4.6204962583039320e-02  -9.1964944142493260e-02  -1.3683925303110914e-01  -1.8039572512472921e-01  -2.2221488778770659e-01  -2.6189399962373033e-01  -2.9905092909566688e-01  -3.3332783466117777e-01  -3.6439461098242248e-01  -3.9195206802092258e-01  -4.1573481240121368e-01  -4.3551380329413647e-01  -4.5109855820523714e-01  -4.6233898742533408e-01  -4.6912683947646316e-01  -4.7139674363279527e-01  -4.6912683947646094e-01  -4.6233898742533081e-01  -4.5109855820523259e-01  -4.3551380329413031e-01  -4.1573481240120813e-01  -3.9195206802091659e-01  -3.6439461098241566e-01  -3.3332783466117277e-01  -2.9905092909566144e-01  -2.6189399962372611e-01  -2.2221488778770201e-01  -1.8039572512472507e-01  -1.3683925303110547e-01  -9.1964944142490720e-02  -4.6204962583037315e-02  -1.9886085137677899e-09  4.6204958613897971e-02  9.1964940197888284e-02  1.3683924912841533e-01  1.8039572128286743e-01  2.2221488402779943e-01  2.6189399596979662e-01  2.9905092557535745e-01  3.3332783130656896e-01  3.6439460783084898e-01  3.9195206511586911e-01  4.1573480979323202e-01  4.3551380104178167e-01  4.5109855637606278e-01  4.6233898609351221e-01  4.6912683887747353e-01  4.7139673682599781e-01  3.8268343236508984e-01  3.8084071202490988e-01  3.7533028181611161e-01  3.6620521601342065e-01  3.5355339385350787e-01  3.3749665929078732e-01  3.1818964744597256e-01  2.9581829538799764e-01  2.7059805145829596e-01  2.4277180038542759e-01  2.1260752417229439e-01  1.8039572128286738e-01  1.4644660898308715e-01  1.1108713577892408e-01  7.4657832723452250e-02  3.7509533916576680e-02  -2.2192061300185365e-09  -3.7509538348052748e-02  -7.4657837133846716e-02  -1.1108714015326952e-01  -1.4644661330503200e-01  -1.8039572553409475e-01  -2.1260752833191504e-01  -2.4277180442934060e-01  -2.7059805535851933e-01  -2.9581829911196894e-01  -3.1818965095582030e-01  -3.3749666254259236e-01  -3.5355339679657005e-01  -3.6620521858949384e-01  -3.7533028396138562e-01  -3.8084071354449850e-01  -3.8268343