<?xml version="1.0"?>
<VTKFile type="UnstructuredGrid"  version="0.1"  >
<UnstructuredGrid>
<Piece  NumberOfPoints="441" NumberOfCells="400">
<Points>
<DataArray  type="Float64"  NumberOfComponents="3"  format="ascii">0 0 0  0.05 0 0  0.1 0 0  0.15 0 0  0.2 0 0  0.25 0 0  0.3 0 0  0.35 0 0  0.4 0 0  0.45 0 0  0.5 0 0  0.55 0 0  0.6 0 0  0.65 0 0  0.7 0 0  0.75 0 0  0.8 0 0  0.85 0 0  0.9 0 0  0.95 0 0  1 0 0  0 0.05 0  0.05 0.05 0  0.1 0.05 0  0.15 0.05 0  0.2 0.05 0  0.25 0.05 0  0.3 0.05 0  0.35 0.05 0  0.4 0.05 0  0.45 0.05 0  0.5 0.05 0  0.55 0.05 0  0.6 0.05 0  0.65 0.05 0  0.7 0.05 0  0.75 0.05 0  0.8 0.05 0  0.85 0.05 0  0.9 0.05 0  0.95 0.05 0  1 0.05 0  0 0.1 0  0.05 0.1 0  0.1 0.1 0  0.15 0.1 0  0.2 0.1 0  0.25 0.1 0  0.3 0.1 0  0.35 0.1 0  0.4 0.1 0  0.45 0.1 0  0.5 0.1 0  0.55 0.1 0  0.6 0.1 0  0.65 0.1 0  0.7 0.1 0  0.75 0.1 0  0.8 0.1 0  0.85 0.1 0  0.9 0.1 0  0.95 0.1 0  1 0.1 0  0 0.15 0  0.05 0.15 0  0.1 0.15 0  0.15 0.15 0  0.2 0.15 0  0.25 0.15 0  0.3 0.15 0  0.35 0.15 0  0.4 0.15 0  0.45 0.15 0  0.5 0.15 0  0.55 0.15 0  0.6 0.15 0  0.65 0.15 0  0.7 0.15 0  0.75 0.15 0  0.8 0.15 0  0.85 0.15 0  0.9 0.15 0  0.95 0.15 0  1 0.15 0  0 0.2 0  0.05 0.2 0  0.1 0.2 0  0.15 0.2 0  0.2 0.2 0  0.25 0.2 0  0.3 0.2 0  0.35 0.2 0  0.4 0.2 0  0.45 0.2 0  0.5 0.2 0  0.55 0.2 0  0.6 0.2 0  0.65 0.2 0  0.7 0.2 0  0.75 0.2 0  0.8 0.2 0  0.85 0.2 0  0.9 0.2 0  0.95 0.2 0  1 0.2 0  0 0.25 0  0.05 0.25 0  0.1 0.25 0  0.15 0.25 0  0.2 0.25 0  0.25 0.25 0  0.3 0.25 0  0.35 0.25 0  0.4 0.25 0  0.45 0.25 0  0.5 0.25 0  0.55 0.25 0  0.6 0.25 0  0.65 0.25 0  0.7 0.25 0  0.75 0.25 0  0.8 0.25 0  0.85 0.25 0  0.9 0.25 0  0.95 0.25 0  1 0.25 0  0 0.3 0  0.05 0.3 0  0.1 0.3 0  0.15 0.3 0  0.2 0.3 0  0.25 0.3 0  0.3 0.3 0  0.35 0.3 0  0.4 0.3 0  0.45 0.3 0  0.5 0.3 0  0.55 0.3 0  0.6 0.3 0  0.65 0.3 0  0.7 0.3 0  0.75 0.3 0  0.8 0.3 0  0.85 0.3 0  0.9 0.3 0  0.95 0.3 0  1 0.3 0  0 0.35 0  0.05 0.35 0  0.1 0.35 0  0.15 0.35 0  0.2 0.35 0  0.25 0.35 0  0.3 0.35 0  0.35 0.35 0  0.4 0.35 0  0.45 0.35 0  0.5 0.35 0  0.55 0.35 0  0.6 0.35 0  0.65 0.35 0  0.7 0.35 0  0.75 0.35 0  0.8 0.35 0  0.85 0.35 0  0.9 0.35 0  0.95 0.35 0  1 0.35 0  0 0.4 0  0.05 0.4 0  0.1 0.4 0  0.15 0.4 0  0.2 0.4 0  0.25 0.4 0  0.3 0.4 0  0.35 0.4 0  0.4 0.4 0  0.45 0.4 0  0.5 0.4 0  0.55 0.4 0  0.6 0.4 0  0.65 0.4 0  0.7 0.4 0  0.75 0.4 0  0.8 0.4 0  0.85 0.4 0  0.9 0.4 0  0.95 0.4 0  1 0.4 0  0 0.45 0  0.05 0.45 0  0.1 0.45 0  0.15 0.45 0  0.2 0.45 0  0.25 0.45 0  0.3 0.45 0  0.35 0.45 0  0.4 0.45 0  0.45 0.45 0  0.5 0.45 0  0.55 0.45 0  0.6 0.45 0  0.65 0.45 0  0.7 0.45 0  0.75 0.45 0  0.8 0.45 0  0.85 0.45 0  0.9 0.45 0  0.95 0.45 0  1 0.45 0  0 0.5 0  0.05 0.5 0  0.1 0.5 0  0.15 0.5 0  0.2 0.5 0  0.25 0.5 0  0.3 0.5 0  0.35 0.5 0  0.4 0.5 0  0.45 0.5 0  0.5 0.5 0  0.55 0.5 0  0.6 0.5 0  0.65 0.5 0  0.7 0.5 0  0.75 0.5 0  0.8 0.5 0  0.85 0.5 0  0.9 0.5 0  0.95 0.5 0  1 0.5 0  0 0.55 0  0.05 0.55 0  0.1 0.55 0  0.15 0.55 0  0.2 0.55 0  0.25 0.55 0  0.3 0.55 0  0.35 0.55 0  0.4 0.55 0  0.45 0.55 0  0.5 0.55 0  0.55 0.55 0  0.6 0.55 0  0.65 0.55 0  0.7 0.55 0  0.75 0.55 0  0.8 0.55 0  0.85 0.55 0  0.9 0.55 0  0.95 0.55 0  1 0.55 0  0 0.6 0  0.05 0.6 0  0.1 0.6 0  0.15 0.6 0  0.2 0.6 0  0.25 0.6 0  0.3 0.6 0  0.35 0.6 0  0.4 0.6 0  0.45 0.6 0  0.5 0.6 0  0.55 0.6 0  0.6 0.6 0  0.65 0.6 0  0.7 0.6 0  0.75 0.6 0  0.8 0.6 0  0.85 0.6 0  0.9 0.6 0  0.95 0.6 0  1 0.6 0  0 0.65 0  0.05 0.65 0  0.1 0.65 0  0.15 0.65 0  0.2 0.65 0  0.25 0.65 0  0.3 0.65 0  0.35 0.65 0  0.4 0.65 0  0.45 0.65 0  0.5 0.65 0  0.55 0.65 0  0.6 0.65 0  0.65 0.65 0  0.7 0.65 0  0.75 0.65 0  0.8 0.65 0  0.85 0.65 0  0.9 0.65 0  0.95 0.65 0  1 0.65 0  0 0.7 0  0.05 0.7 0  0.1 0.7 0  0.15 0.7 0  0.2 0.7 0  0.25 0.7 0  0.3 0.7 0  0.35 0.7 0  0.4 0.7 0  0.45 0.7 0  0.5 0.7 0  0.55 0.7 0  0.6 0.7 0  0.65 0.7 0  0.7 0.7 0  0.75 0.7 0  0.8 0.7 0  0.85 0.7 0  0.9 0.7 0  0.95 0.7 0  1 0.7 0  0 0.75 0  0.05 0.75 0  0.1 0.75 0  0.15 0.75 0  0.2 0.75 0  0.25 0.75 0  0.3 0.75 0  0.35 0.75 0  0.4 0.75 0  0.45 0.75 0  0.5 0.75 0  0.55 0.75 0  0.6 0.75 0  0.65 0.75 0  0.7 0.75 0  0.75 0.75 0  0.8 0.75 0  0.85 0.75 0  0.9 0.75 0  0.95 0.75 0  1 0.75 0  0 0.8 0  0.05 0.8 0  0.1 0.8 0  0.15 0.8 0  0.2 0.8 0  0.25 0.8 0  0.3 0.8 0  0.35 0.8 0  0.4 0.8 0  0.45 0.8 0  0.5 0.8 0  0.55 0.8 0  0.6 0.8 0  0.65 0.8 0  0.7 0.8 0  0.75 0.8 0  0.8 0.8 0  0.85 0.8 0  0.9 0.8 0  0.95 0.8 0  1 0.8 0  0 0.85 0  0.05 0.85 0  0.1 0.85 0  0.15 0.85 0  0.2 0.85 0  0.25 0.85 0  0.3 0.85 0  0.35 0.85 0  0.4 0.85 0  0.45 0.85 0  0.5 0.85 0  0.55 0.85 0  0.6 0.85 0  0.65 0.85 0  0.7 0.85 0  0.75 0.85 0  0.8 0.85 0  0.85 0.85 0  0.9 0.85 0  0.95 0.85 0  1 0.85 0  0 0.9 0  0.05 0.9 0  0.1 0.9 0  0.15 0.9 0  0.2 0.9 0  0.25 0.9 0  0.3 0.9 0  0.35 0.9 0  0.4 0.9 0  0.45 0.9 0  0.5 0.9 0  0.55 0.9 0  0.6 0.9 0  0.65 0.9 0  0.7 0.9 0  0.75 0.9 0  0.8 0.9 0  0.85 0.9 0  0.9 0.9 0  0.95 0.9 0  1 0.9 0  0 0.95 0  0.05 0.95 0  0.1 0.95 0  0.15 0.95 0  0.2 0.95 0  0.25 0.95 0  0.3 0.95 0  0.35 0.95 0  0.4 0.95 0  0.45 0.95 0  0.5 0.95 0  0.55 0.95 0  0.6 0.95 0  0.65 0.95 0  0.7 0.95 0  0.75 0.95 0  0.8 0.95 0  0.85 0.95 0  0.9 0.95 0  0.95 0.95 0  1 0.95 0  0 1 0  0.05 1 0  0.1 1 0  0.15 1 0  0.2 1 0  0.25 1 0  0.3 1 0  0.35 1 0  0.4 1 0  0.45 1 0  0.5 1 0  0.55 1 0  0.6 1 0  0.65 1 0  0.7 1 0  0.75 1 0  0.8 1 0  0.85 1 0  0.9 1 0  0.95 1 0  1 1 0  </DataArray>
</Points>
<Cells>
<DataArray  type="UInt32"  Name="connectivity"  format="ascii">0 1 22 21  1 2 23 22  2 3 24 23  3 4 25 24  4 5 26 25  5 6 27 26  6 7 28 27  7 8 29 28  8 9 30 29  9 10 31 30  10 11 32 31  11 12 33 32  12 13 34 33  13 14 35 34  14 15 36 35  15 16 37 36  16 17 38 37  17 18 39 38  18 19 40 39  19 20 41 40  21 22 43 42  22 23 44 43  23 24 45 44  24 25 46 45  25 26 47 46  26 27 48 47  27 28 49 48  28 29 50 49  29 30 51 50  30 31 52 51  31 32 53 52  32 33 54 53  33 34 55 54  34 35 56 55  35 36 57 56  36 37 58 57  37 38 59 58  38 39 60 59  39 40 61 60  40 41 62 61  42 43 64 63  43 44 65 64  44 45 66 65  45 46 67 66  46 47 68 67  47 48 69 68  48 49 70 69  49 50 71 70  50 51 72 71  51 52 73 72  52 53 74 73  53 54 75 74  54 55 76 75  55 56 77 76  56 57 78 77  57 58 79 78  58 59 80 79  59 60 81 80  60 61 82 81  61 62 83 82  63 64 85 84  64 65 86 85  65 66 87 86  66 67 88 87  67 68 89 88  68 69 90 89  69 70 91 90  70 71 92 91  71 72 93 92  72 73 94 93  73 74 95 94  74 75 96 95  75 76 97 96  76 77 98 97  77 78 99 98  78 79 100 99  79 80 101 100  80 81 102 101  81 82 103 102  82 83 104 103  84 85 106 105  85 86 107 106  86 87 108 107  87 88 109 108  88 89 110 109  89 90 111 110  90 91 112 111  91 92 113 112  92 93 114 113  93 94 115 114  94 95 116 115  95 96 117 116  96 97 118 117  97 98 119 118  98 99 120 119  99 100 121 120  100 101 122 121  101 102 123 122  102 103 124 123  103 104 125 124  105 106 127 126  106 107 128 127  107 108 129 128  108 109 130 129  109 110 131 130  110 111 132 131  111 112 133 132  112 113 134 133  113 114 135 134  114 115 136 135  115 116 137 136  116 117 138 137  117 118 139 138  118 119 140 139  119 120 141 140  120 121 142 141  121 122 143 142  122 123 144 143  123 124 145 144  124 125 146 145  126 127 148 147  127 128 149 148  128 129 150 149  129 130 151 150  130 131 152 151  131 132 153 152  132 133 154 153  133 134 155 154  134 135 156 155  135 136 157 156  136 137 158 157  137 138 159 158  138 139 160 159  139 140 161 160  140 141 162 161  141 142 163 162  142 143 164 163  143 144 165 164  144 145 166 165  145 146 167 166  147 148 169 168  148 149 170 169  149 150 171 170  150 151 172 171  151 152 173 172  152 153 174 173  153 154 175 174  154 155 176 175  155 156 177 176  156 157 178 177  157 158 179 178  158 159 180 179  159 160 181 180  160 161 182 181  161 162 183 182  162 163 184 183  163 164 185 184  164 165 186 185  165 166 187 186  166 167 188 187  168 169 190 189  169 170 191 190  170 171 192 191  171 172 193 192  172 173 194 193  173 174 195 194  174 175 196 195  175 176 197 196  176 177 198 197  177 178 199 198  178 179 200 199  179 180 201 200  180 181 202 201  181 182 203 202  182 183 204 203  183 184 205 204  184 185 206 205  185 186 207 206  186 187 208 207  187 188 209 208  189 190 211 210  190 191 212 211  191 192 213 212  192 193 214 213  193 194 215 214  194 195 216 215  195 196 217 216  196 197 218 217  197 198 219 218  198 199 220 219  199 200 221 220  200 201 222 221  201 202 223 222  202 203 224 223  203 204 225 224  204 205 226 225  205 206 227 226  206 207 228 227  207 208 229 228  208 209 230 229  210 211 232 231  211 212 233 232  212 213 234 233  213 214 235 234  214 215 236 235  215 216 237 236  216 217 238 237  217 218 239 238  218 219 240 239  219 220 241 240  220 221 242 241  221 222 243 242  222 223 244 243  223 224 245 244  224 225 246 245  225 226 247 246  226 227 248 247  227 228 249 248  228 229 250 249  229 230 251 250  231 232 253 252  232 233 254 253  233 234 255 254  234 235 256 255  235 236 257 256  236 237 258 257  237 238 259 258  238 239 260 259  239 240 261 260  240 241 262 261  241 242 263 262  242 243 264 263  243 244 265 264  244 245 266 265  245 246 267 266  246 247 268 267  247 248 269 268  248 249 270 269  249 250 271 270  250 251 272 271  252 253 274 273  253 254 275 274  254 255 276 275  255 256 277 276  256 257 278 277  257 258 279 278  258 259 280 279  259 260 281 280  260 261 282 281  261 262 283 282  262 263 284 283  263 264 285 284  264 265 286 285  265 266 287 286  266 267 288 287  267 268 289 288  268 269 290 289  269 270 291 290  270 271 292 291  271 272 293 292  273 274 295 294  274 275 296 295  275 276 297 296  276 277 298 297  277 278 299 298  278 279 300 299  279 280 301 300  280 281 302 301  281 282 303 302  282 283 304 303  283 284 305 304  284 285 306 305  285 286 307 306  286 287 308 307  287 288 309 308  288 289 310 309  289 290 311 310  290 291 312 311  291 292 313 312  292 293 314 313  294 295 316 315  295 296 317 316  296 297 318 317  297 298 319 318  298 299 320 319  299 300 321 320  300 301 322 321  301 302 323 322  302 303 324 323  303 304 325 324  304 305 326 325  305 306 327 326  306 307 328 327  307 308 329 328  308 309 330 329  309 310 331 330  310 311 332 331  311 312 333 332  312 313 334 333  313 314 335 334  315 316 337 336  316 317 338 337  317 318 339 338  318 319 340 339  319 320 341 340  320 321 342 341  321 322 343 342  322 323 344 343  323 324 345 344  324 325 346 345  325 326 347 346  326 327 348 347  327 328 349 348  328 329 350 349  329 330 351 350  330 331 352 351  331 332 353 352  332 333 354 353  333 334 355 354  334 335 356 355  336 337 358 357  337 338 359 358  338 339 360 359  339 340 361 360  340 341 362 361  341 342 363 362  342 343 364 363  343 344 365 364  344 345 366 365  345 346 367 366  346 347 368 367  347 348 369 368  348 349 370 369  349 350 371 370  350 351 372 371  351 352 373 372  352 353 374 373  353 354 375 374  354 355 376 375  355 356 377 376  357 358 379 378  358 359 380 379  359 360 381 380  360 361 382 381  361 362 383 382  362 363 384 383  363 364 385 384  364 365 386 385  365 366 387 386  366 367 388 387  367 368 389 388  368 369 390 389  369 370 391 390  370 371 392 391  371 372 393 392  372 373 394 393  373 374 395 394  374 375 396 395  375 376 397 396  376 377 398 397  378 379 400 399  379 380 401 400  380 381 402 401  381 382 403 402  382 383 404 403  383 384 405 404  384 385 406 405  385 386 407 406  386 387 408 407  387 388 409 408  388 389 410 409  389 390 411 410  390 391 412 411  391 392 413 412  392 393 414 413  393 394 415 414  394 395 416 415  395 396 417 416  396 397 418 417  397 398 419 418  399 400 421 420  400 401 422 421  401 402 423 422  402 403 424 423  403 404 425 424  404 405 426 425  405 406 427 426  406 407 428 427  407 408 429 428  408 409 430 429  409 410 431 430  410 411 432 431  411 412 433 432  412 413 434 433  413 414 435 434  414 415 436 435  415 416 437 436  416 417 438 437  417 418 439 438  418 419 440 439  </DataArray>
<DataArray  type="UInt32"  Name="offsets"  format="ascii">4 8 12 16 20 24 28 32 36 40 44 48 52 56 60 64 68 72 76 80 84 88 92 96 100 104 108 112 116 120 124 128 132 136 140 144 148 152 156 160 164 168 172 176 180 184 188 192 196 200 204 208 212 216 220 224 228 232 236 240 244 248 252 256 260 264 268 272 276 280 284 288 292 296 300 304 308 312 316 320 324 328 332 336 340 344 348 352 356 360 364 368 372 376 380 384 388 392 396 400 404 408 412 416 420 424 428 432 436 440 444 448 452 456 460 464 468 472 476 480 484 488 492 496 500 504 508 512 516 520 524 528 532 536 540 544 548 552 556 560 564 568 572 576 580 584 588 592 596 600 604 608 612 616 620 624 628 632 636 640 644 648 652 656 660 664 668 672 676 680 684 688 692 696 700 704 708 712 716 720 724 728 732 736 740 744 748 752 756 760 764 768 772 776 780 784 788 792 796 800 804 808 812 816 820 824 828 832 836 840 844 848 852 856 860 864 868 872 876 880 884 888 892 896 900 904 908 912 916 920 924 928 932 936 940 944 948 952 956 960 964 968 972 976 980 984 988 992 996 1000 1004 1008 1012 1016 1020 1024 1028 1032 1036 1040 1044 1048 1052 1056 1060 1064 1068 1072 1076 1080 1084 1088 1092 1096 1100 1104 1108 1112 1116 1120 1124 1128 1132 1136 1140 1144 1148 1152 1156 1160 1164 1168 1172 1176 1180 1184 1188 1192 1196 1200 1204 1208 1212 1216 1220 1224 1228 1232 1236 1240 1244 1248 1252 1256 1260 1264 1268 1272 1276 1280 1284 1288 1292 1296 1300 1304 1308 1312 1316 1320 1324 1328 1332 1336 1340 1344 1348 1352 1356 1360 1364 1368 1372 1376 1380 1384 1388 1392 1396 1400 1404 1408 1412 1416 1420 1424 1428 1432 1436 1440 1444 1448 1452 1456 1460 1464 1468 1472 1476 1480 1484 1488 1492 1496 1500 1504 1508 1512 1516 1520 1524 1528 1532 1536 1540 1544 1548 1552 1556 1560 1564 1568 1572 1576 1580 1584 1588 1592 1596 1600 </DataArray>
<DataArray  type="UInt8"  Name="types"  format="ascii">9 9 9 9 9 9 9 9 9 9 9 9 9 9 9 9 9 9 9 9 9 9 9 9 9 9 9 9 9 9 9 9 9 9 9 9 9 9 9 9 9 9 9 9 9 9 9 9 9 9 9 9 9 9 9 9 9 9 9 9 9 9 9 9 9 9 9 9 9 9 9 9 9 9 9 9 9 9 9 9 9 9 9 9 9 9 9 9 9 9 9 9 9 9 9 9 9 9 9 9 9 9 9 9 9 9 9 9 9 9 9 9 9 9 9 9 9 9 9 9 9 9 9 9 9 9 9 9 9 9 9 9 9 9 9 9 9 9 9 9 9 9 9 9 9 9 9 9 9 9 9 9 9 9 9 9 9 9 9 9 9 9 9 9 9 9 9 9 9 9 9 9 9 9 9 9 9 9 9 9 9 9 9 9 9 9 9 9 9 9 9 9 9 9 9 9 9 9 9 9 9 9 9 9 9 9 9 9 9 9 9 9 9 9 9 9 9 9 9 9 9 9 9 9 9 9 9 9 9 9 9 9 9 9 9 9 9 9 9 9 9 9 9 9 9 9 9 9 9 9 9 9 9 9 9 9 9 9 9 9 9 9 9 9 9 9 9 9 9 9 9 9 9 9 9 9 9 9 9 9 9 9 9 9 9 9 9 9 9 9 9 9 9 9 9 9 9 9 9 9 9 9 9 9 9 9 9 9 9 9 9 9 9 9 9 9 9 9 9 9 9 9 9 9 9 9 9 9 9 9 9 9 9 9 9 9 9 9 9 9 9 9 9 9 9 9 9 9 9 9 9 9 9 9 9 9 9 9 9 9 9 9 9 9 9 9 9 9 9 9 9 9 9 9 9 9 9 9 9 9 9 9 9 9 9 9 9 9 9 9 9 9 9 9 9 9 9 9 9 9 </DataArray>
</Cells>
<PointData  Scalars="f_11461"> 
<DataArray  type="Float64"  Name="f_11461"  format="ascii">1.0000000000000000e+00  9.5105651629515364e-01  8.0901699437494745e-01  5.8778525229247314e-01  3.0901699437494745e-01  6.1232339957367660e-17  -3.0901699437494734e-01  -5.8778525229247303e-01  -8.0901699437494723e-01  -9.5105651629515353e-01  -1.0000000000000000e+00  -9.5105651629515353e-01  -8.0901699437494756e-01  -5.8778525229247325e-01  -3.0901699437494756e-01  -1.8369701987210294e-16  3.0901699437494723e-01  5.8778525229247292e-01  8.0901699437494734e-01  9.5105651629515353e-01  1.0000000000000000e+00  9.5105651629515364e-01  9.0451247650472466e-01  7.6942493422805980e-01  5.5902020492342996e-01  2.9389452740485855e-01  3.5152153247662423e-07  -2.9389386637383064e-01  -5.5901968830797288e-01  -7.6942473882482121e-01  -9.0451309903932808e-01  -9.5106137596432760e-01  -9.0451309903932775e-01  -7.6942473882482088e-01  -5.5901968830797322e-01  -2.9389386637383147e-01  3.5152153217747448e-07  2.9389452740485866e-01  5.5902020492342930e-01  7.6942493422805935e-01  9.0451247650472433e-01  9.5105651629515353e-01  8.0901699437494745e-01  7.6942493422805980e-01  6.5451289491922615e-01  4.7553192160800206e-01  2.5000235239710822e-01  7.4228821100957135e-07  -2.5000093559683090e-01  -4.7553073609589069e-01  -6.5451221030184481e-01  -7.6942539390053399e-01  -8.0902177892296445e-01  -7.6942539390053388e-01  -6.5451221030184492e-01  -4.7553073609589142e-01  -2.5000093559683173e-01  7.4228821057785189e-07  2.5000235239710789e-01  4.7553192160800084e-01  6.5451289491922537e-01  7.6942493422805924e-01  8.0901699437494745e-01  5.8778525229247314e-01  5.5902020492343019e-01  4.7553192160800190e-01  3.4549474928106255e-01  1.8163798060575437e-01  1.1965336473407485e-06  -1.8163565578812091e-01  -3.4549265610017765e-01  -4.7553031870203927e-01  -5.5901964072913279e-01  -5.8778810095405098e-01  -5.5901964072913246e-01  -4.7553031870203966e-01  -3.4549265610017793e-01  -1.8163565578812146e-01  1.1965336468871607e-06  1.8163798060575412e-01  3.4549474928106150e-01  4.7553192160800090e-01  5.5902020492342908e-01  5.8778525229247314e-01  3.0901699437494745e-01  2.9389452740485844e-01  2.5000235239710822e-01  1.8163798060575440e-01  9.5493600113965432e-02  1.7147856975133424e-06  -9.5490214228676457e-02  -1.8163474495406384e-01  -2.4999943741294348e-01  -2.9389227339372054e-01  -3.0901671410784681e-01  -2.9389227339372048e-01  -2.4999943741294339e-01  -1.8163474495406415e-01  -9.5490214228676748e-02  1.7147856971153366e-06  9.5493600113965085e-02  1.8163798060575362e-01  2.5000235239710727e-01  2.9389452740485789e-01  3.0901699437494745e-01  6.1232339957367660e-17  3.5152153253510371e-07  7.4228821101778841e-07  1.1965336473181994e-06  1.7147856974848501e-06  2.2736239823664278e-06  2.8317066800680752e-06  3.3386395231703129e-06  3.7441440432794968e-06  4.0060915603904893e-06  4.0966450029637976e-06  4.0060915602734599e-06  3.7441440431760770e-06  3.3386395229409724e-06  2.8317066798174530e-06  2.2736239819640139e-06  1.7147856969825303e-06  1.1965336467642185e-06  7.4228821048264909e-07  3.5152153210798808e-07  6.1232339957367660e-17  -3.0901699437494734e-01  -2.9389386637383036e-01  -2.5000093559683079e-01  -1.8163565578812096e-01  -9.5490214228676568e-02  2.8317066799869303e-06  9.5495928886990114e-02  1.8164152515214826e-01  2.5000707181286330e-01  2.9390046018947813e-01  3.0902509194868399e-01  2.9390046018947796e-01  2.5000707181286319e-01  1.8164152515214807e-01  9.5495928886989989e-02  2.8317066796298081e-06  -9.5490214228677067e-02  -1.8163565578812130e-01  -2.5000093559683106e-01  -2.9389386637383075e-01  -3.0901699437494734e-01  -5.8778525229247303e-01  -5.5901968830797233e-01  -4.7553073609589080e-01  -3.4549265610017760e-01  -1.8163474495406415e-01  3.3386395230365605e-06  1.8164152515214826e-01  3.4549975466935079e-01  4.7553840762671828e-01  5.5902837165177843e-01  5.8779705412859207e-01  5.5902837165177832e-01  4.7553840762671806e-01  3.4549975466935068e-01  1.8164152515214826e-01  3.3386395227903678e-06  -1.8163474495406479e-01  -3.4549265610017810e-01  -4.7553073609589086e-01  -5.5901968830797266e-01  -5.8778525229247303e-01  -8.0901699437494734e-01  -7.6942473882482099e-01  -6.5451221030184492e-01  -4.7553031870203966e-01  -2.4999943741294375e-01  3.7441440429890077e-06  2.5000707181286319e-01  4.7553840762671806e-01  6.5452112450416833e-01  7.6943511531206854e-01  8.0903177999755949e-01  7.6943511531206843e-01  6.5452112450416888e-01  4.7553840762671840e-01  2.5000707181286363e-01  3.7441440430268845e-06  -2.4999943741294414e-01  -4.7553031870203988e-01  -6.5451221030184503e-01  -7.6942473882482088e-01  -8.0901699437494723e-01  -9.5105651629515353e-01  -9.0451309903932842e-01  -7.6942539390053410e-01  -5.5901964072913291e-01  -2.9389227339372087e-01  4.0060915599591547e-06  2.9390046018947780e-01  5.5902837165177788e-01  7.6943511531206765e-01  9.0452457551349530e-01  9.5107323351295914e-01  9.0452457551349574e-01  7.6943511531206843e-01  5.5902837165177865e-01  2.9390046018947885e-01  4.0060915602497717e-06  -2.9389227339372120e-01  -5.5901964072913279e-01  -7.6942539390053444e-01  -9.0451309903932775e-01  -9.5105651629515364e-01  -1.0000000000000000e+00  -9.5106137596432749e-01  -8.0902177892296423e-01  -5.8778810095405132e-01  -3.0901671410784731e-01  4.0966450023784563e-06  3.0902509194868327e-01  5.8779705412859107e-01  8.0903177999755793e-01  9.5107323351295803e-01  1.0000173852747249e+00  9.5107323351295903e-01  8.0903177999755960e-01  5.8779705412859262e-01  3.0902509194868449e-01  4.0966450028716116e-06  -3.0901671410784748e-01  -5.8778810095405065e-01  -8.0902177892296390e-01  -9.5106137596432694e-01  -1.0000000000000000e+00  -9.5105651629515353e-01  -9.0451309903932797e-01  -7.6942539390053444e-01  -5.5901964072913302e-01  -2.9389227339372093e-01  4.0060915597653468e-06  2.9390046018947741e-01  5.5902837165177710e-01  7.6943511531206743e-01  9.0452457551349486e-01  9.5107323351295869e-01  9.0452457551349608e-01  7.6943511531206832e-01  5.5902837165177899e-01  2.9390046018947885e-01  4.0060915603632708e-06  -2.9389227339372109e-01  -5.5901964072913257e-01  -7.6942539390053410e-01  -9.0451309903932808e-01  -9.5105651629515364e-01  -8.0901699437494756e-01  -7.6942473882482076e-01  -6.5451221030184481e-01  -4.7553031870203993e-01  -2.4999943741294403e-01  3.7441440426790047e-06  2.5000707181286275e-01  4.7553840762671745e-01  6.5452112450416766e-01  7.6943511531206843e-01  8.0903177999755949e-01  7.6943511531206932e-01  6.5452112450416955e-01  4.7553840762671901e-01  2.5000707181286402e-01  3.7441440433057531e-06  -2.4999943741294400e-01  -4.7553031870203960e-01  -6.5451221030184548e-01  -7.6942473882482121e-01  -8.0901699437494756e-01  -5.8778525229247325e-01  -5.5901968830797200e-01  -4.7553073609589092e-01  -3.4549265610017799e-01  -1.8163474495406459e-01  3.3386395226012770e-06  1.8164152515214788e-01  3.4549975466935023e-01  4.7553840762671784e-01  5.5902837165177832e-01  5.8779705412859273e-01  5.5902837165177877e-01  4.7553840762671890e-01  3.4549975466935118e-01  1.8164152515214879e-01  3.3386395232818214e-06  -1.8163474495406406e-01  -3.4549265610017765e-01  -4.7553073609589103e-01  -5.5901968830797266e-01  -5.8778525229247325e-01  -3.0901699437494756e-01  -2.9389386637383086e-01  -2.5000093559683134e-01  -1.8163565578812163e-01  -9.5490214228677137e-02  2.8317066795127782e-06  9.5495928886989739e-02  1.8164152515214810e-01  2.5000707181286330e-01  2.9390046018947830e-01  3.0902509194868444e-01  2.9390046018947885e-01  2.5000707181286413e-01  1.8164152515214899e-01  9.5495928886990544e-02  2.8317066802036568e-06  -9.5490214228676623e-02  -1.8163565578812124e-01  -2.5000093559683123e-01  -2.9389386637383091e-01  -3.0901699437494756e-01  -1.8369701987210297e-16  3.5152153236256918e-07  7.4228821079489932e-07  1.1965336470133317e-06  1.7147856971178663e-06  2.2736239819015512e-06  2.8317066795369809e-06  3.3386395227470357e-06  3.7441440429332467e-06  4.0060915601512957e-06  4.0966450028217942e-06  4.0060915605081617e-06  3.7441440434075042e-06  3.3386395233756494e-06  2.8317066801253372e-06  2.2736239825027489e-06  1.7147856976358386e-06  1.1965336473496877e-06  7.4228821098967041e-07  3.5152153245542035e-07  -1.8369701987210297e-16  3.0901699437494723e-01  2.9389452740485839e-01  2.5000235239710794e-01  1.8163798060575434e-01  9.5493600113965293e-02  1.7147856971264419e-06  -9.5490214228676984e-02  -1.8163474495406462e-01  -2.4999943741294392e-01  -2.9389227339372087e-01  -3.0901671410784726e-01  -2.9389227339372070e-01  -2.4999943741294370e-01  -1.8163474495406418e-01  -9.5490214228676762e-02  1.7147856975851240e-06  9.5493600113965835e-02  1.8163798060575453e-01  2.5000235239710816e-01  2.9389452740485855e-01  3.0901699437494723e-01  5.8778525229247292e-01  5.5902020492342963e-01  4.7553192160800156e-01  3.4549474928106194e-01  1.8163798060575406e-01  1.1965336470687900e-06  -1.8163565578812113e-01  -3.4549265610017782e-01  -4.7553031870203971e-01  -5.5901964072913246e-01  -5.8778810095405065e-01  -5.5901964072913224e-01  -4.7553031870203943e-01  -3.4549265610017788e-01  -1.8163565578812146e-01  1.1965336473147325e-06  1.8163798060575470e-01  3.4549474928106222e-01  4.7553192160800123e-01  5.5902020492342985e-01  5.8778525229247292e-01  8.0901699437494734e-01  7.6942493422805980e-01  6.5451289491922604e-01  4.7553192160800123e-01  2.5000235239710789e-01  7.4228821084240431e-07  -2.5000093559683084e-01  -4.7553073609589064e-01  -6.5451221030184414e-01  -7.6942539390053366e-01  -8.0902177892296379e-01  -7.6942539390053377e-01  -6.5451221030184448e-01  -4.7553073609589097e-01  -2.5000093559683151e-01  7.4228821085652732e-07  2.5000235239710822e-01  4.7553192160800101e-01  6.5451289491922571e-01  7.6942493422805969e-01  8.0901699437494734e-01  9.5105651629515353e-01  9.0451247650472488e-01  7.6942493422805958e-01  5.5902020492342952e-01  2.9389452740485833e-01  3.5152153243265549e-07  -2.9389386637383047e-01  -5.5901968830797211e-01  -7.6942473882482021e-01  -9.0451309903932731e-01  -9.5106137596432727e-01  -9.0451309903932731e-01  -7.6942473882482088e-01  -5.5901968830797266e-01  -2.9389386637383114e-01  3.5152153230658835e-07  2.9389452740485855e-01  5.5902020492342919e-01  7.6942493422805924e-01  9.0451247650472455e-01  9.5105651629515353e-01  1.0000000000000000e+00  9.5105651629515353e-01  8.0901699437494745e-01  5.8778525229247314e-01  3.0901699437494745e-01  6.1232339957367660e-17  -3.0901699437494734e-01  -5.8778525229247303e-01  -8.0901699437494734e-01  -9.5105651629515353e-01  -1.0000000000000000e+00  -9.5105651629515342e-01  -8.0901699437494745e-01  -5.8778525229247325e-01  -3.0901699437494756e-01  -1.8369701987210297e-16  3.0901699437494723e-01  5.8778525229247292e-01  8.0901699437494745e-01  9.5105651629515353e-01  1.0000000000000000e+00  </DataArray> 
</PointData> 
</Piece>
</UnstructuredGrid>
</VTKFile>