<?xml version="1.0"?>
<VTKFile type="UnstructuredGrid"  version="0.1"  >
<UnstructuredGrid>
<Piece  NumberOfPoints="6561" NumberOfCells="12800">
<Points>
<DataArray  type="Float64"  NumberOfComponents="3"  format="ascii">0 0 0  0.0125 0 0  0.025 0 0  0.0375 0 0  0.05 0 0  0.0625 0 0  0.075 0 0  0.08749999999999999 0 0  0.1 0 0  0.1125 0 0  0.125 0 0  0.1375 0 0  0.15 0 0  0.1625 0 0  0.175 0 0  0.1875 0 0  0.2 0 0  0.2125 0 0  0.225 0 0  0.2375 0 0  0.25 0 0  0.2625 0 0  0.275 0 0  0.2875 0 0  0.3 0 0  0.3125 0 0  0.325 0 0  0.3375 0 0  0.35 0 0  0.3625 0 0  0.375 0 0  0.3875 0 0  0.4 0 0  0.4125 0 0  0.425 0 0  0.4375 0 0  0.45 0 0  0.4625 0 0  0.475 0 0  0.4875 0 0  0.5 0 0  0.5125 0 0  0.525 0 0  0.5375 0 0  0.55 0 0  0.5625 0 0  0.575 0 0  0.5875 0 0  0.6 0 0  0.6125 0 0  0.625 0 0  0.6375 0 0  0.65 0 0  0.6625 0 0  0.675 0 0  0.6875 0 0  0.7 0 0  0.7125 0 0  0.725 0 0  0.7375 0 0  0.75 0 0  0.7625 0 0  0.775 0 0  0.7875 0 0  0.8 0 0  0.8125 0 0  0.825 0 0  0.8375 0 0  0.85 0 0  0.8625 0 0  0.875 0 0  0.8875 0 0  0.9 0 0  0.9125 0 0  0.925 0 0  0.9375 0 0  0.95 0 0  0.9625 0 0  0.975 0 0  0.9875 0 0  1 0 0  0 0.0125 0  0.0125 0.0125 0  0.025 0.0125 0  0.0375 0.0125 0  0.05 0.0125 0  0.0625 0.0125 0  0.075 0.0125 0  0.08749999999999999 0.0125 0  0.1 0.0125 0  0.1125 0.0125 0  0.125 0.0125 0  0.1375 0.0125 0  0.15 0.0125 0  0.1625 0.0125 0  0.175 0.0125 0  0.1875 0.0125 0  0.2 0.0125 0  0.2125 0.0125 0  0.225 0.0125 0  0.2375 0.0125 0  0.25 0.0125 0  0.2625 0.0125 0  0.275 0.0125 0  0.2875 0.0125 0  0.3 0.0125 0  0.3125 0.0125 0  0.325 0.0125 0  0.3375 0.0125 0  0.35 0.0125 0  0.3625 0.0125 0  0.375 0.0125 0  0.3875 0.0125 0  0.4 0.0125 0  0.4125 0.0125 0  0.425 0.0125 0  0.4375 0.0125 0  0.45 0.0125 0  0.4625 0.0125 0  0.475 0.0125 0  0.4875 0.0125 0  0.5 0.0125 0  0.5125 0.0125 0  0.525 0.0125 0  0.5375 0.0125 0  0.55 0.0125 0  0.5625 0.0125 0  0.575 0.0125 0  0.5875 0.0125 0  0.6 0.0125 0  0.6125 0.0125 0  0.625 0.0125 0  0.6375 0.0125 0  0.65 0.0125 0  0.6625 0.0125 0  0.675 0.0125 0  0.6875 0.0125 0  0.7 0.0125 0  0.7125 0.0125 0  0.725 0.0125 0  0.7375 0.0125 0  0.75 0.0125 0  0.7625 0.0125 0  0.775 0.0125 0  0.7875 0.0125 0  0.8 0.0125 0  0.8125 0.0125 0  0.825 0.0125 0  0.8375 0.0125 0  0.85 0.0125 0  0.8625 0.0125 0  0.875 0.0125 0  0.8875 0.0125 0  0.9 0.0125 0  0.9125 0.0125 0  0.925 0.0125 0  0.9375 0.0125 0  0.95 0.0125 0  0.9625 0.0125 0  0.975 0.0125 0  0.9875 0.0125 0  1 0.0125 0  0 0.025 0  0.0125 0.025 0  0.025 0.025 0  0.0375 0.025 0  0.05 0.025 0  0.0625 0.025 0  0.075 0.025 0  0.08749999999999999 0.025 0  0.1 0.025 0  0.1125 0.025 0  0.125 0.025 0  0.1375 0.025 0  0.15 0.025 0  0.1625 0.025 0  0.175 0.025 0  0.1875 0.025 0  0.2 0.025 0  0.2125 0.025 0  0.225 0.025 0  0.2375 0.025 0  0.25 0.025 0  0.2625 0.025 0  0.275 0.025 0  0.2875 0.025 0  0.3 0.025 0  0.3125 0.025 0  0.325 0.025 0  0.3375 0.025 0  0.35 0.025 0  0.3625 0.025 0  0.375 0.025 0  0.3875 0.025 0  0.4 0.025 0  0.4125 0.025 0  0.425 0.025 0  0.4375 0.025 0  0.45 0.025 0  0.4625 0.025 0  0.475 0.025 0  0.4875 0.025 0  0.5 0.025 0  0.5125 0.025 0  0.525 0.025 0  0.5375 0.025 0  0.55 0.025 0  0.5625 0.025 0  0.575 0.025 0  0.5875 0.025 0  0.6 0.025 0  0.6125 0.025 0  0.625 0.025 0  0.6375 0.025 0  0.65 0.025 0  0.6625 0.025 0  0.675 0.025 0  0.6875 0.025 0  0.7 0.025 0  0.7125 0.025 0  0.725 0.025 0  0.7375 0.025 0  0.75 0.025 0  0.7625 0.025 0  0.775 0.025 0  0.7875 0.025 0  0.8 0.025 0  0.8125 0.025 0  0.825 0.025 0  0.8375 0.025 0  0.85 0.025 0  0.8625 0.025 0  0.875 0.025 0  0.8875 0.025 0  0.9 0.025 0  0.9125 0.025 0  0.925 0.025 0  0.9375 0.025 0  0.95 0.025 0  0.9625 0.025 0  0.975 0.025 0  0.9875 0.025 0  1 0.025 0  0 0.0375 0  0.0125 0.0375 0  0.025 0.0375 0  0.0375 0.0375 0  0.05 0.0375 0  0.0625 0.0375 0  0.075 0.0375 0  0.08749999999999999 0.0375 0  0.1 0.0375 0  0.1125 0.0375 0  0.125 0.0375 0  0.1375 0.0375 0  0.15 0.0375 0  0.1625 0.0375 0  0.175 0.0375 0  0.1875 0.0375 0  0.2 0.0375 0  0.2125 0.0375 0  0.225 0.0375 0  0.2375 0.0375 0  0.25 0.0375 0  0.2625 0.0375 0  0.275 0.0375 0  0.2875 0.0375 0  0.3 0.0375 0  0.3125 0.0375 0  0.325 0.0375 0  0.3375 0.0375 0  0.35 0.0375 0  0.3625 0.0375 0  0.375 0.0375 0  0.3875 0.0375 0  0.4 0.0375 0  0.4125 0.0375 0  0.425 0.0375 0  0.4375 0.0375 0  0.45 0.0375 0  0.4625 0.0375 0  0.475 0.0375 0  0.4875 0.0375 0  0.5 0.0375 0  0.5125 0.0375 0  0.525 0.0375 0  0.5375 0.0375 0  0.55 0.0375 0  0.5625 0.0375 0  0.575 0.0375 0  0.5875 0.0375 0  0.6 0.0375 0  0.6125 0.0375 0  0.625 0.0375 0  0.6375 0.0375 0  0.65 0.0375 0  0.6625 0.0375 0  0.675 0.0375 0  0.6875 0.0375 0  0.7 0.0375 0  0.7125 0.0375 0  0.725 0.0375 0  0.7375 0.0375 0  0.75 0.0375 0  0.7625 0.0375 0  0.775 0.0375 0  0.7875 0.0375 0  0.8 0.0375 0  0.8125 0.0375 0  0.825 0.0375 0  0.8375 0.0375 0  0.85 0.0375 0  0.8625 0.0375 0  0.875 0.0375 0  0.8875 0.0375 0  0.9 0.0375 0  0.9125 0.0375 0  0.925 0.0375 0  0.9375 0.0375 0  0.95 0.0375 0  0.9625 0.0375 0  0.975 0.0375 0  0.9875 0.0375 0  1 0.0375 0  0 0.05 0  0.0125 0.05 0  0.025 0.05 0  0.0375 0.05 0  0.05 0.05 0  0.0625 0.05 0  0.075 0.05 0  0.08749999999999999 0.05 0  0.1 0.05 0  0.1125 0.05 0  0.125 0.05 0  0.1375 0.05 0  0.15 0.05 0  0.1625 0.05 0  0.175 0.05 0  0.1875 0.05 0  0.2 0.05 0  0.2125 0.05 0  0.225 0.05 0  0.2375 0.05 0  0.25 0.05 0  0.2625 0.05 0  0.275 0.05 0  0.2875 0.05 0  0.3 0.05 0  0.3125 0.05 0  0.325 0.05 0  0.3375 0.05 0  0.35 0.05 0  0.3625 0.05 0  0.375 0.05 0  0.3875 0.05 0  0.4 0.05 0  0.4125 0.05 0  0.425 0.05 0  0.4375 0.05 0  0.45 0.05 0  0.4625 0.05 0  0.475 0.05 0  0.4875 0.05 0  0.5 0.05 0  0.5125 0.05 0  0.525 0.05 0  0.5375 0.05 0  0.55 0.05 0  0.5625 0.05 0  0.575 0.05 0  0.5875 0.05 0  0.6 0.05 0  0.6125 0.05 0  0.625 0.05 0  0.6375 0.05 0  0.65 0.05 0  0.6625 0.05 0  0.675 0.05 0  0.6875 0.05 0  0.7 0.05 0  0.7125 0.05 0  0.725 0.05 0  0.7375 0.05 0  0.75 0.05 0  0.7625 0.05 0  0.775 0.05 0  0.7875 0.05 0  0.8 0.05 0  0.8125 0.05 0  0.825 0.05 0  0.8375 0.05 0  0.85 0.05 0  0.8625 0.05 0  0.875 0.05 0  0.8875 0.05 0  0.9 0.05 0  0.9125 0.05 0  0.925 0.05 0  0.9375 0.05 0  0.95 0.05 0  0.9625 0.05 0  0.975 0.05 0  0.9875 0.05 0  1 0.05 0  0 0.0625 0  0.0125 0.0625 0  0.025 0.0625 0  0.0375 0.0625 0  0.05 0.0625 0  0.0625 0.0625 0  0.075 0.0625 0  0.08749999999999999 0.0625 0  0.1 0.0625 0  0.1125 0.0625 0  0.125 0.0625 0  0.1375 0.0625 0  0.15 0.0625 0  0.1625 0.0625 0  0.175 0.0625 0  0.1875 0.0625 0  0.2 0.0625 0  0.2125 0.0625 0  0.225 0.0625 0  0.2375 0.0625 0  0.25 0.0625 0  0.2625 0.0625 0  0.275 0.0625 0  0.2875 0.0625 0  0.3 0.0625 0  0.3125 0.0625 0  0.325 0.0625 0  0.3375 0.0625 0  0.35 0.0625 0  0.3625 0.0625 0  0.375 0.0625 0  0.3875 0.0625 0  0.4 0.0625 0  0.4125 0.0625 0  0.425 0.0625 0  0.4375 0.0625 0  0.45 0.0625 0  0.4625 0.0625 0  0.475 0.0625 0  0.4875 0.0625 0  0.5 0.0625 0  0.5125 0.0625 0  0.525 0.0625 0  0.5375 0.0625 0  0.55 0.0625 0  0.5625 0.0625 0  0.575 0.0625 0  0.5875 0.0625 0  0.6 0.0625 0  0.6125 0.0625 0  0.625 0.0625 0  0.6375 0.0625 0  0.65 0.0625 0  0.6625 0.0625 0  0.675 0.0625 0  0.6875 0.0625 0  0.7 0.0625 0  0.7125 0.0625 0  0.725 0.0625 0  0.7375 0.0625 0  0.75 0.0625 0  0.7625 0.0625 0  0.775 0.0625 0  0.7875 0.0625 0  0.8 0.0625 0  0.8125 0.0625 0  0.825 0.0625 0  0.8375 0.0625 0  0.85 0.0625 0  0.8625 0.0625 0  0.875 0.0625 0  0.8875 0.0625 0  0.9 0.0625 0  0.9125 0.0625 0  0.925 0.0625 0  0.9375 0.0625 0  0.95 0.0625 0  0.9625 0.0625 0  0.975 0.0625 0  0.9875 0.0625 0  1 0.0625 0  0 0.075 0  0.0125 0.075 0  0.025 0.075 0  0.0375 0.075 0  0.05 0.075 0  0.0625 0.075 0  0.075 0.075 0  0.08749999999999999 0.075 0  0.1 0.075 0  0.1125 0.075 0  0.125 0.075 0  0.1375 0.075 0  0.15 0.075 0  0.1625 0.075 0  0.175 0.075 0  0.1875 0.075 0  0.2 0.075 0  0.2125 0.075 0  0.225 0.075 0  0.2375 0.075 0  0.25 0.075 0  0.2625 0.075 0  0.275 0.075 0  0.2875 0.075 0  0.3 0.075 0  0.3125 0.075 0  0.325 0.075 0  0.3375 0.075 0  0.35 0.075 0  0.3625 0.075 0  0.375 0.075 0  0.3875 0.075 0  0.4 0.075 0  0.4125 0.075 0  0.425 0.075 0  0.4375 0.075 0  0.45 0.075 0  0.4625 0.075 0  0.475 0.075 0  0.4875 0.075 0  0.5 0.075 0  0.5125 0.075 0  0.525 0.075 0  0.5375 0.075 0  0.55 0.075 0  0.5625 0.075 0  0.575 0.075 0  0.5875 0.075 0  0.6 0.075 0  0.6125 0.075 0  0.625 0.075 0  0.6375 0.075 0  0.65 0.075 0  0.6625 0.075 0  0.675 0.075 0  0.6875 0.075 0  0.7 0.075 0  0.7125 0.075 0  0.725 0.075 0  0.7375 0.075 0  0.75 0.075 0  0.7625 0.075 0  0.775 0.075 0  0.7875 0.075 0  0.8 0.075 0  0.8125 0.075 0  0.825 0.075 0  0.8375 0.075 0  0.85 0.075 0  0.8625 0.075 0  0.875 0.075 0  0.8875 0.075 0  0.9 0.075 0  0.9125 0.075 0  0.925 0.075 0  0.9375 0.075 0  0.95 0.075 0  0.9625 0.075 0  0.975 0.075 0  0.9875 0.075 0  1 0.075 0  0 0.08749999999999999 0  0.0125 0.08749999999999999 0  0.025 0.08749999999999999 0  0.0375 0.08749999999999999 0  0.05 0.08749999999999999 0  0.0625 0.08749999999999999 0  0.075 0.08749999999999999 0  0.08749999999999999 0.08749999999999999 0  0.1 0.08749999999999999 0  0.1125 0.08749999999999999 0  0.125 0.08749999999999999 0  0.1375 0.08749999999999999 0  0.15 0.08749999999999999 0  0.1625 0.08749999999999999 0  0.175 0.08749999999999999 0  0.1875 0.08749999999999999 0  0.2 0.08749999999999999 0  0.2125 0.08749999999999999 0  0.225 0.08749999999999999 0  0.2375 0.08749999999999999 0  0.25 0.08749999999999999 0  0.2625 0.08749999999999999 0  0.275 0.08749999999999999 0  0.2875 0.08749999999999999 0  0.3 0.08749999999999999 0  0.3125 0.08749999999999999 0  0.325 0.08749999999999999 0  0.3375 0.08749999999999999 0  0.35 0.08749999999999999 0  0.3625 0.08749999999999999 0  0.375 0.08749999999999999 0  0.3875 0.08749999999999999 0  0.4 0.08749999999999999 0  0.4125 0.08749999999999999 0  0.425 0.08749999999999999 0  0.4375 0.08749999999999999 0  0.45 0.08749999999999999 0  0.4625 0.08749999999999999 0  0.475 0.08749999999999999 0  0.4875 0.08749999999999999 0  0.5 0.08749999999999999 0  0.5125 0.08749999999999999 0  0.525 0.08749999999999999 0  0.5375 0.08749999999999999 0  0.55 0.08749999999999999 
[...]
<PointData  Scalars="f_20141"> 
<DataArray  type="Float64"  Name="f_20141"  format="ascii">1.0000000000000000e+00  9.9691733373312796e-01  9.8768834059513777e-01  9.7236992039767656e-01  9.5105651629515353e-01  9.2387953251128674e-01  8.9100652418836801e-01  8.5264016435409218e-01  8.0901699437494745e-01  7.6040596560003093e-01  7.0710678118654757e-01  6.4944804833018366e-01  5.8778525229247314e-01  5.2249856471594891e-01  4.5399049973954680e-01  3.8268343236508984e-01  3.0901699437494745e-01  2.3344536385590550e-01  1.5643446504023092e-01  7.8459095727844999e-02  6.1232339957367660e-17  -7.8459095727844874e-02  -1.5643446504023104e-01  -2.3344536385590511e-01  -3.0901699437494734e-01  -3.8268343236508973e-01  -4.5399049973954669e-01  -5.2249856471594880e-01  -5.8778525229247303e-01  -6.4944804833018355e-01  -7.0710678118654757e-01  -7.6040596560003082e-01  -8.0901699437494734e-01  -8.5264016435409218e-01  -8.9100652418836779e-01  -9.2387953251128674e-01  -9.5105651629515353e-01  -9.7236992039767656e-01  -9.8768834059513766e-01  -9.9691733373312796e-01  -1.0000000000000000e+00  -9.9691733373312807e-01  -9.8768834059513777e-01  -9.7236992039767667e-01  -9.5105651629515353e-01  -9.2387953251128685e-01  -8.9100652418836812e-01  -8.5264016435409229e-01  -8.0901699437494756e-01  -7.6040596560003071e-01  -7.0710678118654768e-01  -6.4944804833018410e-01  -5.8778525229247325e-01  -5.2249856471594935e-01  -4.5399049973954692e-01  -3.8268343236509034e-01  -3.0901699437494756e-01  -2.3344536385590514e-01  -1.5643446504023104e-01  -7.8459095727844680e-02  -1.8369701987210297e-16  7.8459095727844319e-02  1.5643446504023067e-01  2.3344536385590478e-01  3.0901699437494723e-01  3.8268343236508995e-01  4.5399049973954664e-01  5.2249856471594902e-01  5.8778525229247292e-01  6.4944804833018388e-01  7.0710678118654735e-01  7.6040596560003049e-01  8.0901699437494734e-01  8.5264016435409173e-01  8.9100652418836779e-01  9.2387953251128652e-01  9.5105651629515353e-01  9.7236992039767667e-01  9.8768834059513766e-01  9.9691733373312796e-01  1.0000000000000000e+00  9.9691733373312796e-01  9.9384407817942777e-01  9.8464353680282002e-01  9.6937234019218432e-01  9.4812464063478119e-01  9.2103143735534287e-01  8.8825976898403136e-01  8.5001168376034120e-01  8.0652299385028048e-01  7.5806182148901502e-01  7.0492694591906779e-01  6.4744596131725163e-01  5.8597325706775327e-01  5.2088783283377238e-01  4.5259096189858944e-01  3.8150371718233594e-01  3.0806437518742297e-01  2.3272571387816235e-01  1.5595222115404411e-01  7.8217231127381590e-02  5.8611020890033408e-09  -7.8217219441240882e-02  -1.5595220957586006e-01  -2.3272570247912674e-01  -3.0806436403756565e-01  -3.8150370635006436e-01  -4.5259095145024303e-01  -5.2088782283318247e-01  -5.8597324757582081e-01  -6.4744595239154112e-01  -7.0492693761342451e-01  -7.5806181385322702e-01  -8.0652298692980451e-01  -8.5001167759617668e-01  -8.8825976361293868e-01  -9.2103143281102373e-01  -9.4812463695214599e-01  -9.6937233742337547e-01  -9.8464353508573510e-01  -9.9384407792745011e-01  -9.9691724154241068e-01  -9.9384407885500226e-01  -9.8464353693512019e-01  -9.6937234018319174e-01  -9.4812464060537605e-01  -9.2103143733514647e-01  -8.8825976898006542e-01  -8.5001168377321601e-01  -8.0652299387867254e-01  -7.5806182153107970e-01  -7.0492694597292660e-01  -6.4744596138115440e-01  -5.8597325714012105e-01  -5.2088783291320317e-01  -4.5259096198383592e-01  -3.8150371727228782e-01  -3.0806437528108122e-01  -2.3272571397461336e-01  -1.5595222125244473e-01  -7.8217231226932693e-02  -5.9610349713456513e-09  7.8217219341686878e-02  1.5595220947745547e-01  2.3272570238266865e-01  3.0806436394389891e-01  3.8150370626010049e-01  4.5259095136498295e-01  5.2088782275373857e-01  5.8597324750343849e-01  6.4744595232762303e-01  7.0492693755954772e-01  7.5806181381114401e-01  8.0652298690139546e-01  8.5001167758328533e-01  8.8825976361688741e-01  9.2103143283120315e-01  9.4812463698153637e-01  9.6937233743235984e-01  9.8464353495343182e-01  9.9384407725187629e-01  9.9691733373312796e-01  9.8768834059513777e-01  9.8464353680281980e-01  9.7552816958496535e-01  9.6039834687292891e-01  9.3934734896642502e-01  9.1250496227724132e-01  8.8003667905557947e-01  8.4214267706863644e-01  7.9905658544101021e-01  7.5104404425524340e-01  6.9840106679314884e-01  6.4145221451581769e-01  5.8054859603441433e-01  5.1606570240888006e-01  4.4840109212070617e-01  3.7797193999269124e-01  3.0521246516743233e-01  2.3057125400191636e-01  1.5450849438344791e-01  7.7493138518293467e-02  1.1685381458314027e-08  -7.7493115219441883e-02  -1.5450847129986395e-01  -2.3057123127556003e-01  -3.0521244293794569e-01  -3.7797191839648375e-01  -4.4840107129006385e-01  -5.1606568247108864e-01  -5.8054857711091490e-01  -6.4145219672139575e-01  -6.9840105023515719e-01  -7.5104402903290557e-01  -7.9905657164481159e-01  -8.4214266477990729e-01  -8.8003666834645489e-01  -9.1250495321144254e-01  -9.3934734160189026e-01  -9.6039834126738022e-01  -9.7552816579481827e-01  -9.8464353478481981e-01  -9.8768824895639207e-01  -9.8464353663420190e-01  -9.7552816948218402e-01  -9.6039834676999525e-01  -9.3934734888582638e-01  -9.1250496223179600e-01  -8.8003667904761596e-01  -8.4214267709590063e-01  -7.9905658549970271e-01  -7.5104404434127259e-01  -6.9840106690262060e-01  -6.4145221464519675e-01  -5.8054859618054855e-01  -5.1606570256898254e-01  -4.4840109229230612e-01  -3.7797194017359048e-01  -3.0521246535565505e-01  -2.3057125419565924e-01  -1.5450849458104238e-01  -7.7493138718162630e-02  -1.1886004742070730e-08  7.7493115019567460e-02  1.5450847110226051e-01  2.3057123108180269e-01  3.0521244274970327e-01  3.7797191821555859e-01  4.4840107111843525e-01  5.1606568231095751e-01  5.8054857696474860e-01  6.4145219659198016e-01  6.9840105012564502e-01  7.5104402894683620e-01  7.9905657158608112e-01  8.4214266475260546e-01  8.8003666835438044e-01  9.1250495325684966e-01  9.3934734168245693e-01  9.6039834137029212e-01  9.7552816589758573e-01  9.8464353495343104e-01  9.8768834059513777e-01  9.7236992039767656e-01  9.6937234019218477e-01  9.6039834687292769e-01  9.4550317847277232e-01  9.2477866859939706e-01  8.9835259072831064e-01  8.6638787041286758e-01  8.2908158078206595e-01  7.8666372751625036e-01  7.3939583078522508e-01  6.8756931288951506e-01  6.3150370154505475e-01  5.7154465988861569e-01  5.0806185534964066e-01  4.4144668052760966e-01  3.7210984012650694e-01  3.0047881882374139e-01  2.2699524568494436e-01  1.5211217137391364e-01  7.6291274944608203e-02  1.7436249720923964e-08  -7.6291240179438086e-02  -1.5211213693003561e-01  -2.2699521177423962e-01  -3.0047878565463226e-01  -3.7210980790259662e-01  -4.4144664944634687e-01  -5.0806182560101809e-01  -5.7154463165390157e-01  -6.3150367499557158e-01  -6.8756928818547558e-01  -7.3939580807463523e-01  -7.8666370693390841e-01  -8.2908156244869036e-01  -8.6638785443439159e-01  -8.9835257719533956e-01  -9.2477865758638322e-01  -9.4550317003436035e-01  -9.6039834102844379e-01  -9.6937233688631563e-01  -9.7236982993935483e-01  -9.6937233964612846e-01  -9.6039834653105804e-01  -9.4550317824585017e-01  -9.2477866845612089e-01  -8.9835259065631334e-01  -8.6638787040361442e-01  -8.2908158082770544e-01  -7.8666372760940373e-01  -7.3939583091913885e-01  -6.8756931305814317e-01  -6.3150370174305726e-01  -5.7154466011129879e-01  -5.0806185559287598e-01  -4.4144668078775451e-01  -3.7210984040032496e-01  -3.0047881910832425e-01  -2.2699524597764184e-01  -1.5211217167227223e-01  -7.6291275246310533e-02  -1.7739060349025564e-08  7.6291239877728248e-02  1.5211213663166356e-01  2.2699521148152130e-01  3.0047878537002098e-01  3.7210980762874185e-01  4.4144664918616044e-01  5.0806182535773947e-01  5.7154463143117118e-01  6.3150367479751646e-01  6.8756928801679051e-01  7.3939580794066584e-01  7.8666370684070008e-01  8.2908156240299602e-01  8.6638785444359079e-01  8.9835257726728512e-01  9.2477865772961498e-01  9.4550317026124842e-01  9.6039834137029068e-01  9.6937233743235840e-01  9.7236992039767656e-01  9.5105651629515353e-01  9.4812464063477997e-01  9.3934734896642291e-01  9.2477866859939706e-01  9.0450842026627487e-01  8.7866157677113332e-01  8.4739749249012453e-01  8.1090892089457478e-01  7.6942082615920460e-01  7.2318899618216426e-01  6.7249846556721571e-01  6.1766175829048320e-01  5.5901696088616315e-01  4.9692563803058193e-01  4.3177060337570666e-01  3.6395355937566554e-01  2.9389262065751609e-01  2.2201973620552171e-01  1.4877802625200681e-01  7.4619050293763561e-02  2.3077584158745703e-08  -7.4619004280700466e-02  -1.4877798066433973e-01  -2.2201969132378740e-01  -2.9389257675767677e-01  -3.6395351672730836e-01  -4.3177056224028076e-01  -4.9692559865966690e-01  -5.5901692351979559e-01  -6.1766172315552914e-01  -6.7249843287580613e-01  -7.2318896613020756e-01  -7.6942079892495674e-01  -8.1090889663727606e-01  -8.4739747134861221e-01  -8.7866155886221309e-01  -9.0450840568221647e-01  -9.2477865740304543e-01  -9.3934734118231811e-01  -9.4812463623996368e-01  -9.5105642763320641e-01  -9.4812463989319418e-01  -9.3934734846625856e-01  -9.2477866827278943e-01  -9.0450842007074428e-01  -8.7866157668082012e-01  -8.4739749248744423e-01  -8.1090892096600653e-01  -7.6942082629359043e-01  -7.2318899637000533e-01  -6.7249846580033157e-01  -6.1766175856179406e-01  -5.5901696118950894e-01  -4.9692563836058251e-01  -4.3177060372762582e-01  -3.6395355974530247e-01  -2.9389262104110042e-01  -2.2201973659961860e-01  -1.4877802665343778e-01  -7.4619050699526179e-02  -2.3484782368110220e-08  7.4619003874928896e-02  1.4877798026289218e-01  2.2201969092966509e-01  2.9389257637405841e-01  3.6395351635762913e-01  4.3177056188831259e-01  4.9692559832961436e-01  5.5901692321639229e-01  6.1766172288415500e-01  6.7249843264262266e-01  7.2318896594230009e-01  7.6942079879050707e-01  8.1090889656578213e-01  8.4739747135123156e-01  8.7866155895246889e-01  9.0450840587769865e-01  9.2477865772961809e-01  9.3934734168245826e-01  9.4812463698153604e-01  9.5105651629515353e-01  9.2387953251128674e-01  9.2103143735534165e-01  9.1250496227723810e-01  8.9835259072830831e-01  8.7866157677113166e-01  8.5355332204244028e-01  8.2318262727324687e-01  7.8773673789027521e-01  7.4743418958453789e-01  7.0252346096537588e-01  6.5328144160678225e-01  6.0001172493088561e-01  5.4304273645343415e-01  4.8272570893120981e-01  4.1943251689524008e-01  3.5355338392061653e-01  2.8549447676836837e-01  2.1567540123229570e-01  1.4452661512969614e-01  7.2486774385770059e-02  2.8573957091248382e-08  -7.2486717413886556e-02  -1.4452655868476749e-01  -2.1567534566183849e-01  -2.8549442241424072e-01  -3.5355333111679088e-01  -4.1943246596561823e-01  -4.8272566018748747e-01  -5.4304269019301887e-01  -6.0001168143488393e-01  -6.5328140113804667e-01  -7.0252342376663468e-01  -7.4743415587656747e-01  -7.8773670787010797e-01  -8.2318260111229880e-01  -8.5355329988438089e-01  -8.7866155872916829e-01  -8.9835257688156311e-01  -9.1250495266674514e-01  -9.2103143198186899e-01  -9.2387944624661822e-01  -9.2103143650599439e-01  -9.1250496168710493e-01  -8.9835259034254389e-01  -8.7866157654777799e-01  -8.5355332195076417e-01  -8.2318262729041447e-01  -7.8773673799855926e-01  -7.4743418976960385e-01  -7.0252346121529163e-01  -6.5328144191144222e-01  -6.0001172528163838e-01  -5.4304273684280435e-01  -4.8272570935269121e-01  -4.1943251734311915e-01  -3.5355338438983014e-01  -2.8549447725437488e-01  -2.1567540173095864e-01  -1.4452661563718927e-01  -7.2486774898478282e-02  -2.9088393536609820e-08  7.2486716901168188e-02  1.4452655817725557e-01  2.1567534516314635e-01  2.8549442192819646e-01  3.5355333064752942e-01  4.1943246551768498e-01  4.8272565976594756e-01  5.4304268980358428e-01  6.0001168108406044e-01  6.5328140083331354e-01  7.0252342351664743e-01  7.4743415569143279e-01  7.8773670776175564e-01  8.2318260109506713e-01  8.5355329997599705e-01  8.7866155895247222e-01  8.9835257726729090e-01  9.1250495325685510e-01  9.2103143283120481e-01  9.2387953251128674e-01  8.9100652418836790e-01  8.8825976898402970e-01  8.8003667905557625e-01  8.6638787041286458e-01  8.4739749249012264e-01  8.2318262727324687e-01  7.9389256745106640e-01  7.5970789597653710e-01  7.2083937271247545e-01  6.7752663502653099e-01  6.3003672034681790e-01  5.7866241978717370e-01  5.2372047299244984e-01  4.6554961533319206e-01  4.0450848948938378e-01  3.4097343429901511e-01  2.7533616450397497e-01  2.0800135569838066e-01  1.3938414936895119e-01  6.9907593409676880e-02  3.3890860102664857e-08  -6.9907525836858581e-02  -1.3938408242149106e-01  -2.0800128978869825e-01  -2.7533610003778514e-01  -3.4097337167269148e-01  -4.0450842908736989e-01  -4.6554955752547128e-01  -5.2372041813207848e-01  -5.7866236820789552e-01  -6.3003667236074845e-01  -6.7752659092193013e-01  -7.2083933275158152e-01  -7.5970786039343485e-01  -7.9389253644952873e-01  -8.2318260102445739e-01  -8.4739747113021302e-01  -8.6638785404035756e-01  -8.8003666772932854e-01  -8.8825976272205442e-01  -8.9100644090345449e-01  -8.8825976808918261e-01  -8.8003667843049438e-01  -8.6638787000958606e-01  -8.4739749226904648e-01  -8.2318262720257218e-01  -7.9389256750553239e-01  -7.5970789613585687e-01  -7.2083937296005995e-01  -6.7752663534856306e-01  -6.3003672073163219e-01  -5.7866242022481096e-01  -5.2372047347432482e-01  -4.6554961585184468e-01  -4.0450849003826722e-01  -3.4097343487233062e-01  -2.7533616509652192e-01  -2.0800135630542299e-01  -1.3938414998610621e-01  -6.9907594032804832e-02  -3.4515967110408795e-08  6.9907525213719637e-02  1.3938408180431544e-01  2.0800128918162464e-01  2.7533609944519694e-01  3.4097337109932407e-01  4.0450842853842844e-01  4.6554955700675571e-01  5.2372041765013411e-01  5.7866236777018354e-01  6.3003667197585522e-01  6.7752659059982145e-01  7.2083933250392407e-01  7.5970786023404213e-01  7.9389253639499413e-01  8.2318260109506847e-01  8.4739747135123689e-01  8.6638785444359789e-01  8.8003666835438643e-01  8.8825976361689007e-01  8.9100652418836790e-01  8.5264016435409218e-01  8.5001168376033964e-01  8.4214267706863244e-01  8.2908158078206162e-01  8.1090892089457023e-01  7.8773673789027265e-01  7.5970789597653621e-01  7.2699520227893355e-01  6.8980034142783220e-01  6.4835263210540439e-01  6.0290761321952857e-01  5.5374546842128702e-01  5.0116929867947324e-01  4.4550325356226056e-01  3.8709053274724720e-01  3.2629127008128378e-01  2.6348031323551074e-01  1.9904491264479116e-01  1.3338233397998175e-01  6.6897408872948400e-02  3.8994922120063659e-08  -6.6897331123624643e-02  -1.3338225695067060e-01  -1.9904483681034707e-01  -2.6348023906308327e-01  -3.2629119802729023e-01  -3.8709046325439950e-01  -4.4550318705665798e-01  -5.0116923556777704e-01  -5.5374540908797543e-01  -6.0290755802425555e-01  -6.4835258138044327e-01  -6.8980029547562371e-01  -7.2699516136970443e-01  -7.5970786034595028e-01  -7.8773670773713789e-01  -8.1090889637859864e-01  -8.2908156202185090e-01  -8.4214266414020522e-01  -8.5001167669585498e-01  -8.5264008460969032e-01  -8.5001168287289264e-01  -8.4214267645620011e-01  -8.2908158040087165e-01  -8.1090892070732756e-01  -7.8773673786558640e-01  -7.5970789608837053e-01  -7.2699520250573257e-01  -6.8980034175164617e-01  -6.4835263251114850e-01  -6.0290761369440571e-01  -5.5374546895435039e-01  -5.0116929926128218e-01  -4.4550325418460013e-01  -3.8709053340291094e-01  -3.2629127076388281e-01  -2.6348031393931437e-01  -1.9904491336457886e-01  -1.3338233471092092e-01  -6.6897409610474801e-02  -3.9734630849522284e-08  6.6897330386086612e-02  1.3338225621970951e-01  1.9904483609052598e-01  2.6348023835923579e-01  3.2629119734463569e-01  3.8709046259867386e-01  4.4550318643425157e-01  5.0116923498589583e-01  5.5374540855483279e-01  6.0290755754929615e-01  6.4835258097461890e-01  6.8980029515173202e-01  7.2699516114282803e-01  7.5970786023404224e-01  7.8773670776175597e-01  8.1090889656578524e-01  8.2908156240300057e-01  8.4214266475260946e-01  8.5001167758328655e-01  8.5264016435409218e-01  8.0901699437494745e-01  8.0652299385027804e-01  7.9905658544100666e-01  7.8666372751624658e-01  7.6942082615920115e-01  7.4743418958453656e-01  7.2083937271247422e-01  6.8980034142783164e-01  6.5450846167585452e-01  6.1518131962747691e-01  5.7206138018812636e-01  5.2541449212084912e-01  4.7552824900020124e-01  4.2271021610215331e-01  3.6728603416183514e-01  3.0959741169007321e-01  2.5000001822675294e-01  1.8886129151981232e-01  1.2655817214930970e-01  6.3474779563386499e-02  4.3854119465924705e-08  -6.3474692125842447e-02  -1.2655808552211123e-01  -1.8886120623740166e-01  -2.4999993481492197e-01  -3.0959733066256340e-01  -3.6728595601700448e-01  -4.2271014131971146e-01  -4.7552817803804631e-01  -5.2541442541199923e-01  -5.7206131813776318e-01  -6.1518126261011585e-01  -6.5450841003263138e-01  -6.8980029546391886e-01  -7.2083933269460831e-01  -7.4743415573868710e-01  -7.6942079866844937e-01  -7.8666370651896278e-01  -7.9905657102950434e-01  -8.0652298606933837e-01  -8.0901691870691128e-01  -8.0652299301820340e-01  -7.9905658488439679e-01  -7.8666372719446143e-01  -7.6942082603708117e-01  -7.4743418963171837e-01  -7.2083937290308342e-01  -6.8980034173994142e-01  -6.5450846209089164e-01  -6.1518132012965554e-01  -5.7206138076395729e-01  -5.2541449275874075e-01  -4.7552824969012009e-01  -4.2271021683535809e-01  -3.6728603493064266e-01  -3.0959741248766598e-01  -2.5000001904701125e-01  -1.8886129235715896e-01  -1.2655817299857955e-01  -6.3474780419699436e-02  -4.4712765607946614e-08  6.3474691269517824e-02  1.2655808467281901e-01  1.8886120540002108e-01  2.4999993399461859e-01  3.0959732986491439e-01  3.6728595524813418e-01  4.2271014058643863e-01  4.7552817734805358e-01  5.2541442477402811e-01  5.7206131756184730e-01  6.1518126210785329e-01  6.5450840961751422e-01  6.8980029515173324e-01  7.2083933250392496e-01  7.4743415569143434e-01  7.6942079879051095e-01  7.8666370684070486e-01  7.9905657158608467e-01  8.0652298690139679e-01  8.0901699437494745e-01  7.6040596560003093e-01  7.5806182148901269e-01  7.5104404425523918e-01  7.3939583078522153e-01  7.2318899618216026e-01  7.0252346096537355e-01  6.7752663502652921e-01  6.4835263210540373e-01  6.1518131962747602e-01  5.7821720976141844e-01  5.3768819853352334e-01  4.9384416077285115e-01  4.4695540954975355e-01  3.9731102960585513e-01  3.4521709505044101e-01  2.9099478231175208e-01  2.3497838997747061e-01  1.7751327773273731e-01  1.1895373710282056e-01  5.9660807128034024e-02  4.8437976635001402e-08  -5.9660710551322375e-02  -1.1895364142191607e-01  -1.7751318353846196e-01  -2.3497829785110866e-01  -2.9099469282130291e-01  -3.4521700874694500e-01  -3.9731094701980346e-01  -4.4695533118760383e-01  -4.9384408711366318e-01  -5.3768813002572169e-01  -5.7821714681970537e-01  -6.1518126262990092e-01  -6.4835258139059437e-01  -6.7752659089110145e-01  -7.0252342366155507e-01  -7.2318896591567261e-01  -7.3939580771349722e-01  -7.5104402848604901e-01  -7.5806181307885490e-01  -7.6040589451625340e-01  -7.5806182075670658e-01  -7.5104404379441925e-01  -7.3939583055800495e-01  -7.2318899615547194e-01  -7.0252346111021158e-01  -6.7752663531773638e-01  -6.4835263252130249e-01  -6.1518132014944582e-01  -5.7821721037345697e-01  -5.3768819922185118e-01  -4.9384416152555682e-01  -4.4695541035648856e-01  -3.9731103045757621e-01  -3.4521709593918237e-01  -2.9099478323043670e-01  -2.3497839091973893e-01  -1.7751327869278871e-01  -1.1895373807528148e-01  -5.9660808107825501e-02  -4.9420196351000737e-08  5.9660709571519456e-02  1.1895364044943336e-01  1.7751318257837678e-01  2.3497829690879674e-01  2.9099469190256322e-01  3.4521700785814197e-01  3.9731094616801604e-01  4.4695533038079616e-01  4.9384408636087879e-01  5.3768812933731225e-01  5.7821714620758802e-01  6.1518126210785484e-01  6.4835258097462178e-01  6.7752659059982268e-01  7.0252342351664887e-01  7.2318896594230364e-01  7.3939580794067028e-01  7.5104402894683986e-01  7.5806181381114535e-01  7.6040596560003093e-01  7.0710678118654757e-01  7.0492694591906568e-01  6.9840106679314484e-0