<?xml version="1.0"?>
<VTKFile type="UnstructuredGrid"  version="0.1"  >
<UnstructuredGrid>
<Piece  NumberOfPoints="2521" NumberOfCells="4863">
<Points>
<DataArray  type="Float64"  NumberOfComponents="3"  format="ascii">0 1 0  0 0 0  1 0 0  1 1 0  0.5 0 0  1 0.5 0  0.5 1 0  0 0.5 0  0.5 0.5 0  0 0.25 0  0.25 0 0  0.25 1 0  0 0.75 0  1 0.25 0  0.75 0 0  1 0.75 0  0.75 1 0  0.7083333333333333 0.2916666666666667 0  0.2916666666666666 0.7083333333333334 0  0.375 0.25 0  0.75 0.625 0  0.2569444444444444 0.4652777777777778 0  0.5366379310344828 0.7535919540229885 0  0.1875 0.1875 0  0.8125 0.8125 0  0.869047619047619 0.375 0  0.1450441919191919 0.6052714646464646 0  0.375 0.8690476190476191 0  0.5526960784313725 0.1825980392156862 0  0.8385416666666666 0.1614583333333334 0  0.1614583333333333 0.8385416666666667 0  0.6736111111111112 0.4652777777777778 0  0.1367521367521368 0.3477564102564102 0  0.6570970491253563 0.8648656830417855 0  0.5102479397556124 0.3386260301221938 0  0.3654513888888889 0.5737847222222222 0  0.6929750044954185 0.1362784921584263 0  0.388576102743835 0.411911725237599 0  0.6091269841269842 0.5942460317460317 0  0.875 0.6875 0  0.427278890279516 0.119889445139758 0  0.8544456845238095 0.5213913690476191 0  0.125 0 0  0 0.125 0  1 0.875 0  0.875 1 0  0.1280008648150532 0.4769292340226777 0  0.2695382451711197 0.3321750950221553 0  0.7031567235715964 0.7447810921428012 0  0.625 0 0  0.375 0 0  0.125 1 0  0.875 0 0  0 0.375 0  0 0.625 0  1 0.375 0  0.375 1 0  1 0.125 0  0 0.875 0  0.625 1 0  1 0.625 0  0.2979288363930608 0.1201429454643536 0  0.410919540229885 0.7484605911330049 0  0.5325041980395562 0.878905151526474 0  0.4831670727569156 0.6331060043826487 0  0.1735997378973042 0.7204747378973043 0  0.2534919507575758 0.5772372159090909 0  0.2633928571428572 0.8876488095238095 0  0.8199404761904761 0.2730654761904762 0  0.75830270586982 0.3919383189517417 0  0.5750282248382511 0.4237522353023667 0  0.6008360210023379 0.2794828358598495 0  0.08163442644334186 0.6821295860397322 0  0.08333333333333333 0.1875 0  0.2028380815996574 0.08844602719988583 0  0.2766521142611967 0.2325436572164097 0  0.90625 0.78125 0  0.890625 0.890625 0  0.7545696325008384 0.8973565441669461 0  0.5625 0.08086590340834317 0  0.09077380952380953 0.09077380952380952 0  0.4610923478694773 0.209034015149656 0  0.7542527598351648 0.5248380520595106 0  0.6459235536037465 0.3619913988405765 0  0.7560381768882634 0.20506142233852 0  0.07073252688172042 0.8125 0  0.0924753097241701 0.9078102849914793 0  0.9292674731182795 0.1875 0  0.9075246902758297 0.09218971500852073 0  0.8125 0.07073252688172045 0  0.2400955776842301 0.7869705776842302 0  0.9121050213379069 0.2781978201831695 0  0.7916878157143976 0.7239689078571988 0  0.9345238095238094 0.4375 0  0.4375 0.9345238095238095 0  0.3725616989755203 0.6651895248862173 0  0.06536271996350887 0.5625 0  0.9348362560379583 0.5625 0  0.456646798987055 0.8277247094351965 0  0.1875 0.9355758238725954 0  0.6169761231634859 0.6939779188977889 0  0.6226854751147515 0.7827911461419014 0  0.3305695598137626 0.7901697871282585 0  0.5865305325818898 0.5101085479043448 0  0.6622701297028378 0.2177663989757395 0  0.1354166666666667 0.2591702279202279 0  0 0.3125 0  0.2094429575680048 0.3936361846162499 0  0.836666296419157 0.607917407161686 0  0.6875 1 0  0.214261555450504 0.6492551722020035 0  0 0.4375 0  0.07731537126068377 0.40625 0  0.3427725432967068 0.4879566233699599 0  0.3550792513951871 0.3331953632609953 0  0.4462473953896857 0.2887834789342508 0  0.4747801464819794 0.417386052030127 0  0.8229836475148948 0.4443292349237342 0  0.7322605135514757 0.8199240278289671 0  0.6756431877205955 0.5468989748126787 0  0.1968419507215863 0.5194573482612496 0  0.3285590277777778 0.9345238095238095 0  0.8125 1 0  0.4198917601920009 0.5134893045331258 0  0.5232405503206691 0.2595791787880157 0  1 0.9375 0  0.1987510870015086 0.3025185951894431 0  0.5625 1 0  0.6005390654136388 0.9228110509230952 0  0.6411254848194414 0.07704872765442942 0  0.3357233162523242 0.1855113224530532 0  0.6730653396610877 0.6393887462324165 0  0.310966987234063 0.6240019765311626 0  0.7368737836204349 0.07457755202327881 0  0.6192316414418171 0.1485238406378594 0  0.5432429670607106 0.678552703844006 0  0.4754371679695679 0.7103946803120881 0  0.07501324890749672 0.3043839897335739 0  0.5358146975860403 0.5688321463205916 0  0.3115271739500156 0.3982137365971444 0  0.3625191397122174 0.0767854603650549 0  0.5024029442563831 0.1264128223758444 0  0.4375 0 0  0.4699946908887376 0.06379961173775725 0  0.9375 0.71875 0  0.9272105898044465 0.635671179608893 0  0.9375 1 0  0.6690971819568612 0.9331530898202766 0  0.1073454944778885 0.7499206387638554 0  0.8699082999280406 0.2232403652524313 0  0.5773118091863964 0.3548027349159383 0  0.1354166666666667 0.1428571428571428 0  0.3125 0 0  0.8241684193077341 0.9257452995055244 0  0.4352314948354036 0.3586940847489378 0  0.4351301473778832 0.5819726043539077 0  0.8073232928518163 0.3419398170341962 0  0.7775949246947366 0.1298519409204575 0  0.6875 0 0  0.7413513991851041 0.457933324954483 0  0.939453125 0.841796875 0  0.5630355154606987 0.8171875156478349 0  0.9345238095238095 0.3461466592368577 0  0.9375 0 0  1 0.0625 0  0.0625 1 0  0 0.9375 0  0.06552178593177167 0.4969053669623468 0  0.1424866619031703 0.4130277709291224 0  0.1275287182444726 0.5422946908002588 0  0.2637686595586339 0.06413888464529549 0  0.2524263535491086 0.1697437503243817 0  0.7367218397988525 0.6888573970660841 0  0.0625 0 0  0 0.0625 0  0.8463594539285995 0.7578283617857982 0  0.3128751192101563 0.2851997374369947 0  0.4015281788351144 0.1806421385113692 0  0.1910251795116588 0.4553332197174453 0  0.287797471442006 0.5222621440543902 0  0.3962628745986055 0.8097380085535307 0  0.3505895299554843 0.7304878890838692 0  0.5019151500495276 0.9356042615328103 0  0.9374389419410134 0.4999931039076005 0  0.3125 1 0  0.1875 1 0  1 0.5625 0  0.4375 1 0  1 0.3125 0  1 0.4375 0  0.8125 0 0  1 0.1875 0  0.5625 0 0  0.1875 0 0  0 0.1875 0  0 0.5625 0  0 0.6875 0  0 0.8125 0  1 0.6875 0  1 0.8125 0  0.8021696218581627 0.6612893947866073 0  0.06154922295426143 0.6239401126946708 0  0.9359375 0.9359375 0  0.4666158024849896 0.7691515918155014 0  0.2318201265217025 0.7064974250277525 0  0.1565954253579966 0.6635489312486841 0  0.1598132503680848 0.7787147500325552 0  0.3146529991605639 0.8510876378205265 0  0.1461873209418733 0.05982804528877814 0  0.06109554988524315 0.2446551776247686 0  0.8054950308560754 0.5564226538848541 0  0.470541749491976 0.8853316336952531 0  0.6948472567465137 0.4042308563372457 0  0.8802828472348889 0.4658893256343853 0  0.6788075634946739 0.7974194205806069 0  0.2155048659603867 0.2428201584940968 0  0.8131223143423806 0.2132171049028394 0  0.4330798005432235 0.6671274900735726 0  0.6015279126162613 0.2187368078743274 0  0.8061636571464289 0.8703766630361714 0  0.7008230445061776 0.3478568388444072 0  0.8638466246958771 0.3147095987735538 0  0.204801534004265 0.8789209409594009 0  0.2449006736431132 0.9424182882803838 0  0.7611268409371427 0.2643056884799992 0  0.7552800864046191 0.7678006649959446 0  0.5983639638906616 0.864113435029236 0  0.1956559506814437 0.577281203577426 0  0.3527670268164207 0.1320469097565204 0  0.7530364577483248 0.3262386077083089 0  0.4535919187979363 0.4690107087451527 0  0.8824869791666666 0.8336588541666666 0  0.8814453125 0.9451171875 0  0.5582987942628019 0.622421666543858 0  0.6817532446064828 0.6939001801354731 0  0.3830295138888889 0.9450968952922078 0  0.4140603937012541 0.05211333372716105 0  0.5535864501303013 0.3060591985391672 0  0.6560130086346878 0.2729726562211558 0  0.890203140221684 0.5948314305427268 0  0.7043857725999024 0.593980890020804 0  0.5105843922695152 0.8016828014338627 0  0.05365910753708378 0.7315110031682004 0  0.616904573672261 0.4621186633436136 0  0.5338511646455415 0.387875898899613 0  0.5231769258947843 0.4477682463140762 0  0.650302973237622 0.7370722302085519 0  0.3927483139621257 0.4662414504529014 0  0.8034595960585199 0.4972538342758211 0  0.7738337841682438 0.9496376207663251 0  0.7193737507158268 0.954685447650112 0  0.482525916480686 0.5528257169991676 0  0.2533501157346781 0.2809495420003238 0  0.3118487924482243 0.5702930126570319 0  0.6257598847669529 0.4104163315430518 0  0.1354166666666667 0.1955605158730158 0  0.04166666666666666 0.15625 0  0.3956448985530264 0.6174149462065157 0  0.8102897701818546 0.3938784238208349 0  0.2641154190013625 0.8344469561943118 0  0.642852220770013 0.5068794586563659 0  0.05271458179508221 0.355846947336007 0  0.7021551360070266 0.8921457280225779 0  0.5692125776683765 0.1328512638850284 0  0.5206162811937602 0.04865158770992991 0  0.6001838442201555 0.04540556991297563 0  0.2597716608242787 0.4118346398477178 0  0.4040584599473195 0.3179589136784675 0  0.1480337679295207 0.8941560631483065 0  0.1344356707112281 0.9466251177415842 0  0.7114696411829317 0.4983917389078826 0  0.7585704698442475 0.5751926345944629 0  0.2189131956390871 0.04022068508159698 0  0.2476935455192043 0.1123642267635843 0  0.185995005654517 0.1365524537205238 0  0.6223414373308711 0.643380839165121 0  0.5732602596637543 0.7190051747306219 0  0.268358222364537 0.6586246524467934 0  0.3265879848129173 0.2369791782191225 0  0.1267095595787346 0.7034787238999181 0  0.1115202922226038 0.6421997933884982 0  0.3128688392940203 0.07260997451790079 0  0.550724900485678 0.9253360991633187 0  0.7142608810459105 0.2384904702214873 0  0.7045869185243887 0.1871826897887429 0  0.890625 0.734375 0  0.953125 0.765625 0  0.2111812642821677 0.8286209446459138 0  0.9590293078204457 0.09375 0  0.953431269039847 0.1435719386408004 0  0.04097069217955424 0.90625 0  0.04656873096015299 0.8564280613591996 0  0.1078743037981226 0.8541621766048062 0  0.8921256962018773 0.1458378233951939 0  0.8521576979194619 0.1084496634207678 0  0.8655663982740958 0.05464346096571447 0  0.04005659640905543 0.09375 0  0.1001448316533417 0.04246776244228261 
[...]
<PointData  Scalars="f_382"> 
<DataArray  type="Float64"  Name="f_382"  format="ascii">1.0000000000000000e+00  1.0000000000000000e+00  1.0000000000000000e+00  1.0000000000000000e+00  -1.0000000000000000e+00  -1.0000000000000000e+00  -1.0000000000000000e+00  -9.9999999999999989e-01  1.0003125322777437e+00  6.1232339957367660e-17  6.1232339957367660e-17  6.1232339957367660e-17  -1.8369701987210294e-16  6.1232339957367660e-17  -1.8369701987210297e-16  -1.8369701987210297e-16  -1.8369701987210294e-16  6.7945667897599496e-02  6.7283667471455838e-02  7.3542433885940997e-04  -1.5195670086127076e-04  4.2962992202283390e-02  -2.1164246307622914e-02  1.4730133982714635e-01  1.4706884671722120e-01  -4.8058428120635360e-01  -4.8290327905544667e-01  -4.8131696270504337e-01  -3.8797193240155997e-01  2.7870711085246691e-01  2.7888796939488203e-01  4.5145484205558928e-01  -3.7652041603242781e-01  -3.6451492487160103e-01  5.2798751765308516e-01  5.9404346281576492e-01  -2.2965041803108041e-01  6.5134901336053541e-01  6.4276181671331978e-01  -2.7075067970333461e-01  -6.5395339759056892e-01  -6.0347140835199276e-01  7.0710678118654757e-01  7.0710678118654757e-01  7.0710678118654735e-01  7.0710678118654735e-01  -6.8556421652928434e-01  6.0866377846989242e-02  1.0317543405733961e-02  -7.0710678118654768e-01  -7.0710678118654746e-01  7.0710678118654757e-01  7.0710678118654735e-01  -7.0710678118654746e-01  -7.0710678118654768e-01  -7.0710678118654746e-01  -7.0710678118654746e-01  7.0710678118654757e-01  7.0710678118654735e-01  -7.0710678118654768e-01  -7.0710678118654768e-01  -2.1561917974032313e-01  8.7162834753072831e-03  -7.0792761751983169e-01  6.6625170958193269e-01  -8.4474385241830319e-02  1.9728246503434372e-02  -6.4246607330669364e-02  -6.0500295643866921e-02  -4.0235155268983122e-02  7.9146343941058339e-01  1.4860928518179825e-01  -3.5935451997822115e-01  3.3113880998696643e-01  2.4786816910063594e-01  -1.7153869334670065e-02  1.6200267301285648e-01  5.9638343374189406e-01  2.3469769529831774e-02  -8.0713028241930151e-01  7.0791405039327993e-01  -2.4663799809173703e-01  -2.6277328994497567e-02  3.9429892298620756e-01  1.1771652398911966e-02  3.4562707671231874e-01  6.9913761553793941e-01  3.4612159804628512e-01  6.9937704100842413e-01  3.4540984817371673e-01  1.4623505841125119e-02  -1.5050592928263862e-01  -4.0950817924200883e-02  -8.4612324597419775e-01  -8.4605735440072805e-01  3.5388385981877762e-01  -8.4599210719337525e-01  -8.4767426953581626e-01  -4.5231090888814629e-01  3.5183899945689456e-01  2.5613287967128917e-01  -1.4704779013834871e-01  -1.2108688891385450e-01  8.5450340499000843e-01  -1.0524782329380108e-01  -3.7528049133252785e-02  -3.8268343236508973e-01  -1.9722492242673489e-01  -4.0285082116667881e-01  -3.8268343236509028e-01  -1.3247902899019756e-01  -9.2387953251128674e-01  -7.3575311655043629e-01  5.4848877218102943e-01  3.0723957213033554e-01  2.2823790270458996e-01  8.5794780377376201e-01  -4.1518830347913993e-01  -4.6877509592382488e-02  4.3148000328498082e-01  -3.2500376273986115e-01  -4.3494589260938571e-01  3.8268343236509000e-01  8.7307330986763221e-01  5.9859639200192875e-02  9.2387953251128652e-01  -1.0124105793073926e-01  -9.2387953251128696e-01  -7.1316220347149828e-01  -5.5902538509075816e-01  -2.0065307185266851e-01  2.9784634886542144e-01  2.6598780296985797e-01  -7.3325422676080276e-02  -4.3554490724656458e-01  4.1862223062028681e-01  2.4393069384804847e-01  -2.9841143879945270e-01  8.8527484069109597e-01  3.0292959782868695e-01  -5.7532763661002351e-01  -7.0066342886082378e-01  -9.2387953251128674e-01  -9.0414158450099591e-01  -1.8018794627483853e-01  -5.8963626417100434e-01  9.2387953251128652e-01  -4.4407983097873743e-01  -1.0343933195604655e-04  1.1491075521069928e-01  5.4162658373908257e-01  4.1109604616688683e-01  -3.8268343236508973e-01  4.0110836206350903e-01  5.7949034520140996e-01  7.9993103717833425e-01  -1.9208116503424508e-01  1.1839489671186817e-01  -3.8268343236509034e-01  5.2845380090217622e-02  5.0662868162326224e-01  -3.7730724791473991e-01  -5.2060217104015694e-01  9.2387953251128641e-01  9.2387953251128674e-01  9.2387953251128685e-01  9.2387953251128652e-01  -9.1378955855529831e-01  -5.3352470069606073e-01  -6.7014467089528262e-01  -7.9213918300551467e-02  -7.5505903831752956e-03  3.0938941676966321e-02  9.2387953251128674e-01  9.2387953251128674e-01  2.9020322928673188e-02  8.4946966280713812e-02  -3.4282395116892694e-01  -3.4711385913434395e-01  2.3324457575043459e-01  -2.9069510768047435e-01  7.2505981848799736e-02  -9.1672297227200439e-01  -9.2430672380846624e-01  -3.8268343236508973e-01  3.8268343236508984e-01  -9.2387953251128674e-01  -9.2387953251128674e-01  -3.8268343236508973e-01  -9.2387953251128685e-01  3.8268343236509000e-01  3.8268343236508984e-01  -9.2387953251128685e-01  3.8268343236508984e-01  3.8268343236508984e-01  -9.2387953251128674e-01  -3.8268343236509034e-01  3.8268343236509006e-01  -3.8268343236509034e-01  3.8268343236509000e-01  -1.6988260235765135e-01  -6.5859254253389354e-01  8.4563555576494509e-01  -1.1699268591125581e-01  -3.0429903235855666e-02  -2.8545108800306884e-01  9.5979966578441184e-02  -2.3425911723008871e-01  5.6368272902191019e-01  3.1567892512049729e-02  -3.2023230517558027e-01  -7.3762284925773147e-01  2.8042615870543852e-01  -7.1309856463280807e-01  -1.2696908818574129e-01  9.4502829330514737e-03  8.9032744058307911e-02  4.5370366275830054e-01  -1.5610191979843993e-01  2.3698539772825419e-01  1.7595372327039338e-01  -2.5962797482928529e-01  2.0371573855320305e-01  2.9981291141807576e-02  -6.0703300767183145e-03  3.7284707702154524e-03  -5.3528114574140395e-01  -2.9546794489641282e-01  -4.0558074137270389e-01  -8.2801079578157452e-03  9.3960012754387368e-01  3.7096360279378759e-01  6.9210679591885538e-01  6.7160952184247080e-01  1.4387173664799027e-01  -6.9761741284932077e-01  -8.1131481116342907e-01  3.2599064813744777e-01  8.0721678992463811e-02  -6.3846931181189248e-01  2.3505454493920452e-01  -3.1823814234913372e-01  -1.0896352701815898e-01  7.2196629205556206e-01  7.4410211281041483e-01  9.3648918148739602e-01  4.7356506797683891e-02  7.6489531524072585e-01  -3.2880236176522287e-01  1.4119824543795853e-01  -1.8345189709777451e-01  9.3947432811593756e-01  5.1836416053925756e-03  3.4265760119125277e-01  5.9565491787450253e-01  2.2137446956857010e-01  5.3656231697722379e-01  5.8718160064830505e-01  -2.9002324132785207e-01  -4.4690762323625489e-02  6.2419130607313411e-01  -5.8353073448284387e-01  -2.3077148714233647e-01  -6.0861047061251172e-01  -9.4492803825576299e-01  -7.7570839794589863e-01  5.2263250768478063e-02  3.4115083198636242e-01  4.7077803963959058e-01  6.2819799108144747e-01  2.4015701760425373e-01  -4.7266895423885985e-02  1.8785678402508751e-01  1.1091434096304391e-02  2.5602664078927168e-01  4.4654035089123612e-01  1.7397129459865959e-01  6.1762812032734767e-02  -3.8635615549240332e-02  -2.0168359534133612e-01  -4.7903538892275632e-01  -3.4518198441089321e-01  -8.4732502673462884e-01  -1.4971434605670363e-02  -1.0787198416994208e-01  -7.5542260157119165e-02  9.3774194613348322e-02  1.1420027537208631e-01  8.0479706485729374e-01  5.9207130044589262e-01  8.0467712788766643e-01  5.9401731936987234e-01  4.7385379859217069e-01  4.7457069829934251e-01  4.6493553129396864e-01  6.2529863317412127e-01  8.0519987415426575e-01  7.7945886955194554e-01  8.7138058650089711e-01  8.2556326984109074e-01  -6.6978426108618927e-01  9.2037402850431604e-01  -3.1677291711456640e-01  -4.3906601798779493e-01  -4.8685423005366768e-01  -1.2908807258070804e-01  2.1692397246624631e-01  4.6633849484106898e-01  3.3305170034351950e-01  5.4834733144889536e-01  7.1769277662754857e-02  1.3970705735452948e-01  1.6277910862622155e-01  -3.0828064928690996e-01  7.3457547278286928e-01  1.5940716958307552e-02  -1.5404199348288109e-02  3.4173278899830062e-01  -4.4595740233622683e-01  -2.5382377102520948e-01  7.1067168683452986e-01  -4.7473533110183666e-02  -2.3108638845982052e-01  2.0365697074818934e-01  1.8885797274213273e-01  -7.9618796208569292e-02  -5.4235904814258185e-01  -6.7049534253716325e-01  -5.7748205126077168e-01  -8.2148114836557495e-01  -7.4409705571120643e-01  -1.9044914583111150e-01  -6.3927661266028202e-01  -4.5619480807070616e-02  -1.5375210880696383e-01  3.6719577360073113e-02  -1.3136369454104740e-01  1.3003857213217984e-01  -8.9977263129465246e-02  -2.8931295232744936e-01  -9.6010808077423870e-01  -6.8310453748040600e-01  -9.6084539261212654e-01  -8.1347662266909226e-01  -7.9659420197998132e-01  5.1021033803530447e-01  -5.4240610481591189e-01  2.1669261759478356e-01  5.3811740887759169e-02  -1.9058892771318528e-01  -5.4317140454212409e-01  -3.2789444557947561e-01  9.0327238444038760e-01  -2.3292709888974994e-01  5.2989752473983409e-01  7.0952430378302414e-02  1.0972203718905127e-01  -2.3874558969487772e-01  -5.4429668501015871e-01  -9.6192932889908744e-01  -9.5819837687310216e-01  -9.5668764429636410e-01  -9.6299202747457380e-01  9.3706318870112693e-01  9.5685754800130973e-01  -5.3364452386399930e-01  -2.0115624332432655e-01  -1.2768260941817033e-01  5.4424153596783598e-01  -1.8665384855700626e-01  9.5764557257470451e-01  -8.2117091462092573e-01  4.0016614812183776e-01  4.7218374628001591e-01  8.1982249511251049e-01  4.4220971421686134e-01  6.8705261623053260e-01  -8.1345647821616363e-01  -1.4407208162352060e-02  1.8054068775210286e-01  1.5248257936966869e-01  5.0826531908761408e-01  -7.9656949514958122e-02  1.7424384141096058e-01  2.2896007557710027e-01  6.5577640110339308e-01  -6.2351127032644327e-01  4.5237770395653726e-01  -9.3945920328105961e-02  -1.7989762067398907e-01  5.3619600242295291e-02  2.8761529305511163e-01  -3.9698552197692399e-01  -5.4674547726270528e-01  4.4961531998582249e-01  1.8494812193200216e-01  8.0875858802346978e-01  -3.7624862955455729e-01  2.7418727408985621e-01  -7.6653832375512354e-01  -1.8450863693872441e-01  -4.9017684844122000e-01  7.7402309462133423e-01  -5.4190482691615116e-01  -6.4529366931021181e-01  -1.2917298849691177e-02  -8.0438371411757470e-02  9.8078528040323032e-01  -1.4267623219494860e-01  -2.9024904705450755e-01  1.3387209364825757e-02  -4.8875152727749260e-01  -4.0140248013186608e-02  7.1623646501947258e-01  -1.3001632588066972e-01  1.9509032201612836e-01  -9.4774452145672941e-02  9.6853383883659583e-01  7.6494193628296614e-01  -1.9696805217037103e-01  4.6039968399131731e-01  1.3946851726125412e-01  3.1361683544677715e-05  -5.4245045025366057e-01  -4.9324825674257200e-01  -1.3995877729245082e-01  -3.4064141285304172e-04  3.5350951762154775e-02  1.4192193772336084e-01  4.5813786323774447e-02  -4.0566163130104534e-02  -1.9509032201612819e-01  2.8873518545268301e-01  8.2233102805333880e-01  -2.2062263817381927e-01  -5.7780506724442304e-01  -8.3385678782784733e-01  -8.1886812212334306e-02  -8.9981251872761991e-01  -2.8253664044478766e-01  6.1646083662827145e-02  -4.0967923501547304e-01  -3.3417469570406294e-01  7.1119114680932394e-01  -1.0988071920318640e-01  8.3760257734578991e-01  1.5208451521624156e-01  2.8042691556038574e-01  1.0133700577025839e-01  -5.8617681769481167e-01  8.3146961230254524e-01  4.6948163991118769e-01  -8.7126159552819504e-01  -7.0355784561667711e-01  2.9360289929823941e-01  3.0071186954349377e-01  -4.3112810755089037e-01  -8.3146961230254535e-01  -1.5952279416098639e-01  9.0300132093617758e-01  -4.0922295471793796e-01  -3.2366265211989750e-02  -7.9185132177649287e-01  -4.7167212455624158e-01  -5.7630820308988318e-01  -3.5909006179345010e-01  5.5557023301960184e-01  4.7443975708458125e-01  -2.7067245527841327e-01  1.3670204274725856e-01  -1.3257924870118221e-01  -2.4755299447872281e-01  -7.7028110952799889e-01  -5.6484802758599029e-01  2.2183780728789970e-01  1.7881257258180683e-02  5.9851000186126480e-01  3.7877118406929655e-01  5.5557023301960229e-01  5.4664149967489206e-01  2.0354340973611856e-01  1.0181652370585428e-01  -1.7762563391028763e-01  -5.5557023301960218e-01  -4.3052384553204559e-01  -7.9659038141361305e-01  2.4772441442422113e-01  1.1568772915505701e-01  6.0146505297864382e-02  1.5060862684524573e-01  3.0585198277782344e-01  -3.1425465263476771e-01  5.4579047802848435e-01  -5.5557023301960196e-01  -7.3613460816906007e-01  -9.9011931440970480e-02  -8.0911831058285019e-02  7.1596900237274483e-02  2.7283555770673817e-01  8.2398348054632444e-03  5.6306565911006645e-01  9.5245999775491685e-01  5.5557023301960229e-01  1.9509032201612833e-01  2.8244309623794478e-01  -8.3843289961955936e-01  -6.9505497024902396e-01  -1.6752654148655610e-01  -5.2299335954172375e-02  1.2294029933063683e-01  3.4942246069183269e-01  -4.9889680137357573e-01  -5.3132759298960353e-01  -3.4973991275567090e-01  -2.5187744242372095e-01  -1.9509032201612866e-01  9.6043458498415141e-02  4.6190622854228486e-01  2.5454797559190545e-01  -9.2028100359741494e-01  -3.8200672147413889e-01  9.7448746907603800e-01  -3.3934366798768251e-01  -2.2436251412401517e-01  -1.1235991737237201e-02  2.5892278608037522e-01  1.0947310060147702e-01  -4.4338603923211421e-02  1.4335464403760639e-01  3.7029800695163317e-01  -1.0384362719257735e-01  2.0122728662088273e-02  -9.7326132509813834e-01  -4.9005904101277434e-02  -1.2146087411055853e-01  -1.9509032201612819e-01  -3.3507166558426815e-01  -1.6759540054204022e-01  -1.4929340188595730e-01  2.8790063776111541e-01  -9.6174321144928215e-02  -2.0844920106976008e-05  -3.4204052439719584e-01  9.8078528040323054e-01  -6.0317078083505793e-01  -6.7893938692074540e-01  -5.2514398168929055e-01  4.2775903112572961e-01  -3.8482870851311973e-01  -4.2490073183705163e-01  7.0225229579097226e-01  7.5625210254219355e-01  4.4397185527760713e-01  6.2050271523638989e-01  5.2943875109509642e-01  5.8528216592387650e-01  6.9629259478963523e-01  6.2197608856384667e-01  6.2185101426929490e-01  -2.2077062175725096e-01  -2.7424344052908267e-01  -3.3707529604733943e-01  -7.4516721420827436e-02  -7.2589083319090308e-01  2.6915925273929908e-01  3.9228811482630105e-01  5.5820324255125364e-01  4.6553276849359296e-02  9.3877007812212587e-01  1.9271434509315463e-01  -5.5557023301960196e-01  1.8433860334627022e-01  -1.1445108092122175e-01  8.4466640957046957e-01  -5.5343470077731001e-03  -6.2849980503331793e-01  -5.3784025550142378e-01  8.6117920874114351e-01  5.8990547377601976e-01  -1.3191193783858229e-01  4.2807808409288306e-01  -3.9353559295974427e-01  -1.6461601805413861e-01  4.2287524114945280e-01  -8.1580197474103289e-01  -6.2057814593698446e-01  -3.7596381400664798e-02  1.9168022990387920e-01  1.9509032201612830e-01  1.5818878154336519e-01  9.7778738723141634e-01  -6.1126605744078921e-01  6.5375146396076181e-02  1.6784436706528663e-01  -6.3878140769090463e-01  8.5843075410945202e-01  -2.9961909500553413e-01  -7.4876557708386293e-01  -3.8014905294489850e-04  -8.0257435698627522e-01  1.0584791105828203e-01  -8.8136004078706084e-03  -1.8151697885208587e-01  -8.9613032029121265e-01  -8.3146961230254524e-01  8.8108129345554076e-01  8.4328679465315726e-01  -5.7987846869862791e-01  -2.6246291829531415e-01  6.6547274848498883e-01  5.7841258487593951e-02  -8.7135211485871478e-01  -8.3146961230254535e-01  2.2586646831594898e-01  6.4948293007498076e-02  3.7396655421231245e-01  4.1669390298181658e-01  3.7896126036540589e-01  -4.7776523652891208e-02  3.1129278964912188e-01  -8.9926110982722995e-01  -8.3435398001189309e-01  9.8078528040323043e-01  9.8078528040323043e-01  1.2038185881862075e-01  -9.8078528040323043e-01  7.2801064843621965e-01  8.2611149705081199e-01  5.5557023301960229e-01  5.5557023301960184e-01  2.3150583149972279e-01  6.2082729265896447e-02  2.1318822075026084e-02  4.2436276663085226e-01  -7.3759954625316049e-01  9.3519210203906897e-02  3.0101463347905599e-01  1.9509032201612830e-01  6.6795002898618161e-01  6.7350529608071175e-01  -6.9511929106143833e-01  -5.7833456582457865e-01  7.3843070280389989e-01  -3.4676000340870455e-01  -3.1214564173937864e-01  -3.6423762669392529e-01  -6.7243393595575818e-01  -1.9203655832988900e-01  -3.5594098670658947e-01  4.3518679458251996e-02  7.3003865681475932e-02  1.1915080516795588e-01  -3.6133800949383910e-01  5.0059498713742567e-01  1.4529216029913864e-02  -9.0200112923973264e-01  -9.8144807648803689e-01  4.9385094080469782e-01  4.9357701870170534e-01  -9.7642589295253057e-01  -9.0640163414846020e-01  -6.9446816297870728e-01  -9.8078528040323032e-01  8.3146961230254524e-01  -8.3146961230254557e-01  5.5557023301960184e-01  9.8078528040323043e-01  9.8078528040323054e-01  -9.8078528040323043e-01  -5.5557023301960218e-01  -1.9509032201612819e-01  -5.5557023301960218e-01  -1.9509032201612866e-01  -5.5557023301960218e-01  -9.8078528040323054e-01  -9.8078528040323043e-01  -8.3146961230254546e-01  -8.3146961230254535e-01  -9.8078528040323043e-01  -9.8078528040323054e-01  -1.9509032201612819e-01  -5.5557023301960196e-01  1.9509032201612830e-01  1.9509032201612830e-01  8.3146961230254524e-01  8.3146961230254524e-01  8.3146961230254524e-01  8.3146961230254524e-01  1.9509032201612833e-01  -8.3146961230254546e-01  8.3146961230254524e-01  5.5557023301960229e-01  -1.9509032201612866e-01  -9.8078528040323032e-01  8.3146961230254524e-01  9.8078528040323032e-01  9.8078528040323032e-01  -8.3146961230254546e-01  1.9509032201612833e-01  -5.5557023301960196e-01  -1.9509032201612866e-01  5.5557023301960184e-01  -1.5772178942991738e-02  -7.2492340236477260e-01  4.7993480477398121e-01  -4.1074169254865744e-01  -5.2376110003592800e-03  -9.7760168418015958e-01  -3.0482605621929768e-02  1.7688031033579270e-03  6.1236562608196848e-02  -2.2725697694544755e-01  4.6496679635157773e-01  9.2807757603237492e-02  2.1928601528933950e-01  -7.6812929923984197e-01  -5.1305530977035441e-01  -7.0564514059674754e-01  -9.0204941207132983e-01  -1.4564941804195375e-01  1.9503396473598517e-01  -7.7565164591147884e-01  -1.1960803633204216e-01  -6.9031521886033209e-01  -3.5357992637379966e-02  -9.0141495586346465e-01  -6.2754209174684639e-01  8.6697368757355486e-01  -4.6784918942749493e-01  7.8487232641768145e-01  3.4083126647427781e-01  -2.8914401627333103e-01  -2.1116719594363745e-01  2.2133346924596436e-01  6.1525272332440395e-01  4.4314828530145522e-01  5.7935247883231358e-02  -7.4119505540507957e-01  -1.4795269429050545e-01  1.9194633217725682e-01  -3.6787719475073377e-01  -2.0237089376333969e-01  3.8138461844705512e-01  4.0456561187584605e-01  3.7672203460623173e-02  -4.0949476934525986e-01  2.9805480645230675e-01  -4.6710074329426826e-01  -3.5877086210983504e-02  3.5030607403983186e-02  -1.4923632086390426e-01  -4.2438906321397274e-01  -3.3898035400410148e-01  -1.1434327238724280e-01  -9.1039373301196014e-01  -4.2421036869460249e-01  -6.9237385371477556e-02  6.6173328792892422e-02  -8.5775958870734192e-04  -8.2778367139741271e-01  6.7241155669258557e-01  -1.9617570173784957e-01  1.4734528830890407e-02  -1.6682526804840008e-03  3.3515512041026374e-01  -2.8313626266213660e-01  -4.1151533665290135e-01  -2.3999801724150585e-01  -1.8237516717316099e-01  -3.9440799118658160e-01  7.5239610426765002e-01  -1.3301509289810895e-01  -7.8073275844680379e-01  -8.4118598481654350e-01  2.5663641336094484e-01  2.1959598965684526e-01  3.3025681966151998e-01  -5.5716398026160197e-01  6.0716309168714344e-01  -1.2754776267467063e-01  -5.7094395462246961e-01  -2.4751298475033109e-01  -4.6275921417223648e-01  3.2264759373664509e-01  1.8259476835309249e-01  -8.3276756203082192e-01  5.9008191042128078e-01  -4.3796133627867695e-01  5.3462254227769485e-02  1.7469538626897399e-01  -2.8688673143582782e-01  -2.0821591797447048e-01  6.6105060650286440e-01  -8.5349795503519987e-01  -1.9462466465522402e-01  3.3962000343257429e-02  3.1190437546649985e-01  2.2491658656187921e-01  1.2604882761986461e-01  2.5596995067399325e-01  -1.3272815409581429e-01  7.4010737382367986e-01  -4.4319768410535693e-01  5.6117572712663111e-01  9.3629515040576594e-01  -6.4508297544025053e-02  -4.8970515939459208e-01  -1.0840775867657168e-01  5.7443563472317483e-01  -3.0750102105119465e-01  -1.4064099577858435e-01  -4.4657700811668775e-02  1.8903