<?xml version="1.0"?>
<VTKFile type="UnstructuredGrid"  version="0.1"  >
<UnstructuredGrid>
<Piece  NumberOfPoints="441" NumberOfCells="800">
<Points>
<DataArray  type="Float64"  NumberOfComponents="3"  format="ascii">0 0 0  0.05 0 0  0.1 0 0  0.15 0 0  0.2 0 0  0.25 0 0  0.3 0 0  0.35 0 0  0.4 0 0  0.45 0 0  0.5 0 0  0.55 0 0  0.6 0 0  0.65 0 0  0.7 0 0  0.75 0 0  0.8 0 0  0.85 0 0  0.9 0 0  0.95 0 0  1 0 0  0 0.05 0  0.05 0.05 0  0.1 0.05 0  0.15 0.05 0  0.2 0.05 0  0.25 0.05 0  0.3 0.05 0  0.35 0.05 0  0.4 0.05 0  0.45 0.05 0  0.5 0.05 0  0.55 0.05 0  0.6 0.05 0  0.65 0.05 0  0.7 0.05 0  0.75 0.05 0  0.8 0.05 0  0.85 0.05 0  0.9 0.05 0  0.95 0.05 0  1 0.05 0  0 0.1 0  0.05 0.1 0  0.1 0.1 0  0.15 0.1 0  0.2 0.1 0  0.25 0.1 0  0.3 0.1 0  0.35 0.1 0  0.4 0.1 0  0.45 0.1 0  0.5 0.1 0  0.55 0.1 0  0.6 0.1 0  0.65 0.1 0  0.7 0.1 0  0.75 0.1 0  0.8 0.1 0  0.85 0.1 0  0.9 0.1 0  0.95 0.1 0  1 0.1 0  0 0.15 0  0.05 0.15 0  0.1 0.15 0  0.15 0.15 0  0.2 0.15 0  0.25 0.15 0  0.3 0.15 0  0.35 0.15 0  0.4 0.15 0  0.45 0.15 0  0.5 0.15 0  0.55 0.15 0  0.6 0.15 0  0.65 0.15 0  0.7 0.15 0  0.75 0.15 0  0.8 0.15 0  0.85 0.15 0  0.9 0.15 0  0.95 0.15 0  1 0.15 0  0 0.2 0  0.05 0.2 0  0.1 0.2 0  0.15 0.2 0  0.2 0.2 0  0.25 0.2 0  0.3 0.2 0  0.35 0.2 0  0.4 0.2 0  0.45 0.2 0  0.5 0.2 0  0.55 0.2 0  0.6 0.2 0  0.65 0.2 0  0.7 0.2 0  0.75 0.2 0  0.8 0.2 0  0.85 0.2 0  0.9 0.2 0  0.95 0.2 0  1 0.2 0  0 0.25 0  0.05 0.25 0  0.1 0.25 0  0.15 0.25 0  0.2 0.25 0  0.25 0.25 0  0.3 0.25 0  0.35 0.25 0  0.4 0.25 0  0.45 0.25 0  0.5 0.25 0  0.55 0.25 0  0.6 0.25 0  0.65 0.25 0  0.7 0.25 0  0.75 0.25 0  0.8 0.25 0  0.85 0.25 0  0.9 0.25 0  0.95 0.25 0  1 0.25 0  0 0.3 0  0.05 0.3 0  0.1 0.3 0  0.15 0.3 0  0.2 0.3 0  0.25 0.3 0  0.3 0.3 0  0.35 0.3 0  0.4 0.3 0  0.45 0.3 0  0.5 0.3 0  0.55 0.3 0  0.6 0.3 0  0.65 0.3 0  0.7 0.3 0  0.75 0.3 0  0.8 0.3 0  0.85 0.3 0  0.9 0.3 0  0.95 0.3 0  1 0.3 0  0 0.35 0  0.05 0.35 0  0.1 0.35 0  0.15 0.35 0  0.2 0.35 0  0.25 0.35 0  0.3 0.35 0  0.35 0.35 0  0.4 0.35 0  0.45 0.35 0  0.5 0.35 0  0.55 0.35 0  0.6 0.35 0  0.65 0.35 0  0.7 0.35 0  0.75 0.35 0  0.8 0.35 0  0.85 0.35 0  0.9 0.35 0  0.95 0.35 0  1 0.35 0  0 0.4 0  0.05 0.4 0  0.1 0.4 0  0.15 0.4 0  0.2 0.4 0  0.25 0.4 0  0.3 0.4 0  0.35 0.4 0  0.4 0.4 0  0.45 0.4 0  0.5 0.4 0  0.55 0.4 0  0.6 0.4 0  0.65 0.4 0  0.7 0.4 0  0.75 0.4 0  0.8 0.4 0  0.85 0.4 0  0.9 0.4 0  0.95 0.4 0  1 0.4 0  0 0.45 0  0.05 0.45 0  0.1 0.45 0  0.15 0.45 0  0.2 0.45 0  0.25 0.45 0  0.3 0.45 0  0.35 0.45 0  0.4 0.45 0  0.45 0.45 0  0.5 0.45 0  0.55 0.45 0  0.6 0.45 0  0.65 0.45 0  0.7 0.45 0  0.75 0.45 0  0.8 0.45 0  0.85 0.45 0  0.9 0.45 0  0.95 0.45 0  1 0.45 0  0 0.5 0  0.05 0.5 0  0.1 0.5 0  0.15 0.5 0  0.2 0.5 0  0.25 0.5 0  0.3 0.5 0  0.35 0.5 0  0.4 0.5 0  0.45 0.5 0  0.5 0.5 0  0.55 0.5 0  0.6 0.5 0  0.65 0.5 0  0.7 0.5 0  0.75 0.5 0  0.8 0.5 0  0.85 0.5 0  0.9 0.5 0  0.95 0.5 0  1 0.5 0  0 0.55 0  0.05 0.55 0  0.1 0.55 0  0.15 0.55 0  0.2 0.55 0  0.25 0.55 0  0.3 0.55 0  0.35 0.55 0  0.4 0.55 0  0.45 0.55 0  0.5 0.55 0  0.55 0.55 0  0.6 0.55 0  0.65 0.55 0  0.7 0.55 0  0.75 0.55 0  0.8 0.55 0  0.85 0.55 0  0.9 0.55 0  0.95 0.55 0  1 0.55 0  0 0.6 0  0.05 0.6 0  0.1 0.6 0  0.15 0.6 0  0.2 0.6 0  0.25 0.6 0  0.3 0.6 0  0.35 0.6 0  0.4 0.6 0  0.45 0.6 0  0.5 0.6 0  0.55 0.6 0  0.6 0.6 0  0.65 0.6 0  0.7 0.6 0  0.75 0.6 0  0.8 0.6 0  0.85 0.6 0  0.9 0.6 0  0.95 0.6 0  1 0.6 0  0 0.65 0  0.05 0.65 0  0.1 0.65 0  0.15 0.65 0  0.2 0.65 0  0.25 0.65 0  0.3 0.65 0  0.35 0.65 0  0.4 0.65 0  0.45 0.65 0  0.5 0.65 0  0.55 0.65 0  0.6 0.65 0  0.65 0.65 0  0.7 0.65 0  0.75 0.65 0  0.8 0.65 0  0.85 0.65 0  0.9 0.65 0  0.95 0.65 0  1 0.65 0  0 0.7 0  0.05 0.7 0  0.1 0.7 0  0.15 0.7 0  0.2 0.7 0  0.25 0.7 0  0.3 0.7 0  0.35 0.7 0  0.4 0.7 0  0.45 0.7 0  0.5 0.7 0  0.55 0.7 0  0.6 0.7 0  0.65 0.7 0  0.7 0.7 0  0.75 0.7 0  0.8 0.7 0  0.85 0.7 0  0.9 0.7 0  0.95 0.7 0  1 0.7 0  0 0.75 0  0.05 0.75 0  0.1 0.75 0  0.15 0.75 0  0.2 0.75 0  0.25 0.75 0  0.3 0.75 0  0.35 0.75 0  0.4 0.75 0  0.45 0.75 0  0.5 0.75 0  0.55 0.75 0  0.6 0.75 0  0.65 0.75 0  0.7 0.75 0  0.75 0.75 0  0.8 0.75 0  0.85 0.75 0  0.9 0.75 0  0.95 0.75 0  1 0.75 0  0 0.8 0  0.05 0.8 0  0.1 0.8 0  0.15 0.8 0  0.2 0.8 0  0.25 0.8 0  0.3 0.8 0  0.35 0.8 0  0.4 0.8 0  0.45 0.8 0  0.5 0.8 0  0.55 0.8 0  0.6 0.8 0  0.65 0.8 0  0.7 0.8 0  0.75 0.8 0  0.8 0.8 0  0.85 0.8 0  0.9 0.8 0  0.95 0.8 0  1 0.8 0  0 0.85 0  0.05 0.85 0  0.1 0.85 0  0.15 0.85 0  0.2 0.85 0  0.25 0.85 0  0.3 0.85 0  0.35 0.85 0  0.4 0.85 0  0.45 0.85 0  0.5 0.85 0  0.55 0.85 0  0.6 0.85 0  0.65 0.85 0  0.7 0.85 0  0.75 0.85 0  0.8 0.85 0  0.85 0.85 0  0.9 0.85 0  0.95 0.85 0  1 0.85 0  0 0.9 0  0.05 0.9 0  0.1 0.9 0  0.15 0.9 0  0.2 0.9 0  0.25 0.9 0  0.3 0.9 0  0.35 0.9 0  0.4 0.9 0  0.45 0.9 0  0.5 0.9 0  0.55 0.9 0  0.6 0.9 0  0.65 0.9 0  0.7 0.9 0  0.75 0.9 0  0.8 0.9 0  0.85 0.9 0  0.9 0.9 0  0.95 0.9 0  1 0.9 0  0 0.95 0  0.05 0.95 0  0.1 0.95 0  0.15 0.95 0  0.2 0.95 0  0.25 0.95 0  0.3 0.95 0  0.35 0.95 0  0.4 0.95 0  0.45 0.95 0  0.5 0.95 0  0.55 0.95 0  0.6 0.95 0  0.65 0.95 0  0.7 0.95 0  0.75 0.95 0  0.8 0.95 0  0.85 0.95 0  0.9 0.95 0  0.95 0.95 0  1 0.95 0  0 1 0  0.05 1 0  0.1 1 0  0.15 1 0  0.2 1 0  0.25 1 0  0.3 1 0  0.35 1 0  0.4 1 0  0.45 1 0  0.5 1 0  0.55 1 0  0.6 1 0  0.65 1 0  0.7 1 0  0.75 1 0  0.8 1 0  0.85 1 0  0.9 1 0  0.95 1 0  1 1 0  </DataArray>
</Points>
<Cells>
[...]
<PointData  Scalars="f_19191"> 
<DataArray  type="Float64"  Name="f_19191"  format="ascii">1.0000000000000000e+00  9.5105651629515353e-01  8.0901699437494745e-01  5.8778525229247314e-01  3.0901699437494745e-01  6.1232339957367660e-17  -3.0901699437494734e-01  -5.8778525229247303e-01  -8.0901699437494734e-01  -9.5105651629515353e-01  -1.0000000000000000e+00  -9.5105651629515353e-01  -8.0901699437494756e-01  -5.8778525229247325e-01  -3.0901699437494756e-01  -1.8369701987210297e-16  3.0901699437494723e-01  5.8778525229247292e-01  8.0901699437494734e-01  9.5105651629515353e-01  1.0000000000000000e+00  9.5105651629515353e-01  9.0429768068946936e-01  7.6964737485921964e-01  5.5993580744292526e-01  2.9553595087426959e-01  2.2539489068582439e-03  -2.9124025354197919e-01  -5.5623772496358415e-01  -7.6680943505936972e-01  -9.0234873121916459e-01  -9.4959071171755272e-01  -9.0391177088141617e-01  -7.6978251317139501e-01  -5.6032981592512443e-01  -2.9605079497844466e-01  -2.8041536917181469e-03  2.9072540943780401e-01  5.5584371648138431e-01  7.6667429674719401e-01  9.0273464102721701e-01  9.5105651629515353e-01  8.0901699437494745e-01  7.6964737485921986e-01  6.5564824154680057e-01  4.7782881748081824e-01  2.5340053695335618e-01  4.2249759709207975e-03  -2.4536550654288031e-01  -4.7097124944477509e-01  -6.5052556549756280e-01  -7.6646132378040821e-01  -8.0743409821702783e-01  -7.6943440189243351e-01  -6.5618069612135499e-01  -4.7875486899326558e-01  -2.5451570010299690e-01  -5.3961069020100382e-03  2.4425034339323964e-01  4.7004519793232713e-01  6.4999311092300793e-01  7.6667429674719423e-01  8.0901699437494745e-01  5.8778525229247314e-01  5.5993580744292526e-01  4.7782881748081835e-01  3.4923464579081731e-01  1.8657379747200975e-01  5.6691459407204985e-03  -1.7582826253790423e-01  -3.4018399241184449e-01  -4.7132679937270899e-01  -5.5642817600565897e-01  -5.8716176227079198e-01  -5.6052026696719914e-01  -4.7911041892119949e-01  -3.5089722563421283e-01  -1.8842242352286045e-01  -7.5731385809362402e-03  1.7397963648705375e-01  3.3852141256844837e-01  4.7004519793232735e-01  5.5584371648138475e-01  5.8778525229247314e-01  3.0901699437494745e-01  2.9553595087426959e-01  2.5340053695335629e-01  1.8657379747200981e-01  1.0148956020713400e-01  6.4098257844544078e-03  -8.9397004593375351e-02  -1.7657367685695730e-01  -2.4659725521254053e-01  -2.9261810908298663e-01  -3.1013325488092758e-01  -2.9742865051945194e-01  -2.5574744877265682e-01  -1.8916783784191318e-01  -1.0420232877728418e-01  -9.1574133125269155e-03  8.6684236023225225e-02  1.7397963648705350e-01  2.4425034339323959e-01  2.9072540943780401e-01  3.0901699437494745e-01  6.1232339957367660e-17  2.2539489068583497e-03  4.2249759709209137e-03  5.6691459407205774e-03  6.4098257844544607e-03  6.3537717571934367e-03  5.4965929807528615e-03  3.9192373341684896e-03  1.7768010802742362e-03  -7.1901303945723317e-04  -3.3221470767447496e-03  -5.7771156380334657e-03  -7.8442817926564594e-03  -9.3230471874881093e-03  -1.0070646116228399e-02  -1.0014592088967414e-02  -9.1574133125268582e-03  -7.5731385809361413e-03  -5.3961069020099055e-03  -2.8041536917179869e-03  6.1232339957367660e-17  -3.0901699437494734e-01  -2.9124025354197891e-01  -2.4536550654288006e-01  -1.7582826253790412e-01  -8.9397004593375254e-02  5.4965929807529066e-03  9.9586537598879782e-02  1.8368098505920291e-01  2.4956245661329768e-01  2.9079228059740653e-01  3.0334079525143948e-01  2.8598173916094111e-01  2.4041226305318109e-01  1.7108682407424686e-01  8.4781213414971149e-02  -1.0070646116228366e-02  -1.0420232877728408e-01  -1.8842242352286007e-01  -2.5451570010299657e-01  -2.9605079497844439e-01  -3.0901699437494734e-01  -5.8778525229247303e-01  -5.5623772496358381e-01  -4.7097124944477470e-01  -3.4018399241184422e-01  -1.7657367685695710e-01  3.9192373341685694e-03  1.8368098505920286e-01  3.4515440769445466e-01  4.7256115370090018e-01  5.5344836774535522e-01  5.7990895775042028e-01  5.4935627678381493e-01  4.6477753415240941e-01  3.3444117447208610e-01  1.7108682407424708e-01  -9.3230471874880139e-03  -1.8916783784191327e-01  -3.5089722563421261e-01  -4.7875486899326558e-01  -5.6032981592512443e-01  -5.8778525229247303e-01  -8.0901699437494734e-01  -7.6680943505936949e-01  -6.5052556549756246e-01  -4.7132679937270877e-01  -2.4659725521254039e-01  1.7768010802743529e-03  2.4956245661329773e-01  4.7256115370090035e-01  6.4898334456111950e-01  7.6158524466777522e-01  7.9935913820871796e-01  7.5861216655574948e-01  6.4332821393732675e-01  4.6477753415240941e-01  2.4041226305318147e-01  -7.8442817926562807e-03  -2.5574744877265693e-01  -4.7911041892119927e-01  -6.5618069612135488e-01  -7.6978251317139468e-01  -8.0901699437494734e-01  -9.5105651629515353e-01  -9.0234873121916437e-01  -7.6646132378040843e-01  -5.5642817600565908e-01  -2.9261810908298663e-01  -7.1901303945717972e-04  2.9079228059740653e-01  5.5344836774535533e-01  7.6158524466777511e-01  8.9485935277317108e-01  9.4024199065400171e-01  8.9329631311091884e-01  7.5861216655574970e-01  5.4935627678381505e-01  2.8598173916094161e-01  -5.7771156380332271e-03  -2.9742865051945200e-01  -5.6052026696719892e-01  -7.6943440189243362e-01  -9.0391177088141639e-01  -9.5105651629515353e-01  -1.0000000000000000e+00  -9.4959071171755260e-01  -8.0743409821702772e-01  -5.8716176227079198e-01  -3.1013325488092747e-01  -3.3221470767446693e-03  3.0334079525143942e-01  5.7990895775042017e-01  7.9935913820871762e-01  9.4024199065400127e-01  9.8878491197059659e-01  9.4024199065400160e-01  7.9935913820871785e-01  5.7990895775042040e-01  3.0334079525143998e-01  -3.3221470767444993e-03  -3.1013325488092769e-01  -5.8716176227079153e-01  -8.0743409821702805e-01  -9.4959071171755305e-01  -1.0000000000000000e+00  -9.5105651629515353e-01  -9.0391177088141617e-01  -7.6943440189243373e-01  -5.6052026696719925e-01  -2.9742865051945211e-01  -5.7771156380334726e-03  2.8598173916094100e-01  5.4935627678381471e-01  7.5861216655574915e-01  8.9329631311091851e-01  9.4024199065400127e-01  8.9485935277317086e-01  7.6158524466777489e-01  5.5344836774535544e-01  2.9079228059740697e-01  -7.1901303945715034e-04  -2.9261810908298691e-01  -5.5642817600565864e-01  -7.6646132378040854e-01  -9.0234873121916515e-01  -9.5105651629515353e-01  -8.0901699437494756e-01  -7.6978251317139479e-01  -6.5618069612135477e-01  -4.7911041892119943e-01  -2.5574744877265682e-01  -7.8442817926564906e-03  2.4041226305318092e-01  4.6477753415240908e-01  6.4332821393732620e-01  7.5861216655574881e-01  7.9935913820871740e-01  7.6158524466777500e-01  6.4898334456111906e-01  4.7256115370090018e-01  2.4956245661329776e-01  1.7768010802741360e-03  -2.4659725521254083e-01  -4.7132679937270877e-01  -6.5052556549756313e-01  -7.6680943505936994e-01  -8.0901699437494756e-01  -5.8778525229247325e-01  -5.6032981592512432e-01  -4.7875486899326558e-01  -3.5089722563421277e-01  -1.8916783784191318e-01  -9.3230471874881614e-03  1.7108682407424669e-01  3.3444117447208571e-01  4.6477753415240886e-01  5.4935627678381460e-01  5.7990895775042006e-01  5.5344836774535522e-01  4.7256115370090013e-01  3.4515440769445455e-01  1.8368098505920294e-01  3.9192373341683569e-03  -1.7657367685695757e-01  -3.4018399241184433e-01  -4.7097124944477509e-01  -5.5623772496358415e-01  -5.8778525229247325e-01  -3.0901699437494756e-01  -2.9605079497844461e-01  -2.5451570010299673e-01  -1.8842242352286032e-01  -1.0420232877728408e-01  -1.0070646116228413e-02  8.4781213414971024e-02  1.7108682407424686e-01  2.4041226305318109e-01  2.8598173916094127e-01  3.0334079525143975e-01  2.9079228059740692e-01  2.4956245661329782e-01  1.8368098505920294e-01  9.9586537598879810e-02  5.4965929807526577e-03  -8.9397004593375795e-02  -1.7582826253790454e-01  -2.4536550654288070e-01  -2.9124025354197935e-01  -3.0901699437494756e-01  -1.8369701987210297e-16  -2.8041536917180598e-03  -5.3961069020098942e-03  -7.5731385809360806e-03  -9.1574133125267888e-03  -1.0014592088967362e-02  -1.0070646116228375e-02  -9.3230471874881128e-03  -7.8442817926564889e-03  -5.7771156380334865e-03  -3.3221470767446568e-03  -7.1901303945721105e-04  1.7768010802741317e-03  3.9192373341683517e-03  5.4965929807526646e-03  6.3537717571931799e-03  6.4098257844541276e-03  5.6691459407202383e-03  4.2249759709205581e-03  2.2539489068580543e-03  -1.8369701987210297e-16  3.0901699437494723e-01  2.9072540943780417e-01  2.4425034339323987e-01  1.7397963648705392e-01  8.6684236023225392e-02  -9.1574133125267455e-03  -1.0420232877728401e-01  -1.8916783784191321e-01  -2.5574744877265698e-01  -2.9742865051945216e-01  -3.1013325488092774e-01  -2.9261810908298691e-01  -2.4659725521254081e-01  -1.7657367685695760e-01  -8.9397004593375781e-02  6.4098257844541501e-03  1.0148956020713384e-01  1.8657379747200953e-01  2.5340053695335618e-01  2.9553595087426943e-01  3.0901699437494723e-01  5.8778525229247292e-01  5.5584371648138442e-01  4.7004519793232719e-01  3.3852141256844853e-01  1.7397963648705372e-01  -7.5731385809359479e-03  -1.8842242352285984e-01  -3.5089722563421244e-01  -4.7911041892119893e-01  -5.6052026696719870e-01  -5.8716176227079164e-01  -5.5642817600565886e-01  -4.7132679937270877e-01  -3.4018399241184444e-01  -1.7582826253790465e-01  5.6691459407202070e-03  1.8657379747200958e-01  3.4923464579081670e-01  4.7782881748081785e-01  5.5993580744292482e-01  5.8778525229247292e-01  8.0901699437494734e-01  7.6667429674719412e-01  6.4999311092300804e-01  4.7004519793232757e-01  2.4425034339323987e-01  -5.3961069020096947e-03  -2.5451570010299640e-01  -4.7875486899326536e-01  -6.5618069612135488e-01  -7.6943440189243351e-01  -8.0743409821702783e-01  -7.6646132378040854e-01  -6.5052556549756302e-01  -4.7097124944477531e-01  -2.4536550654288081e-01  4.2249759709204852e-03  2.5340053695335613e-01  4.7782881748081779e-01  6.5564824154680035e-01  7.6964737485921941e-01  8.0901699437494734e-01  9.5105651629515353e-01  9.0273464102721701e-01  7.6667429674719412e-01  5.5584371648138486e-01  2.9072540943780417e-01  -2.8041536917178295e-03  -2.9605079497844411e-01  -5.6032981592512410e-01  -7.6978251317139457e-01  -9.0391177088141617e-01  -9.4959071171755249e-01  -9.0234873121916437e-01  -7.6680943505937016e-01  -5.5623772496358459e-01  -2.9124025354197958e-01  2.2539489068579750e-03  2.9553595087426943e-01  5.5993580744292470e-01  7.6964737485921952e-01  9.0429768068946903e-01  9.5105651629515353e-01  1.0000000000000000e+00  9.5105651629515353e-01  8.0901699437494745e-01  5.8778525229247314e-01  3.0901699437494745e-01  6.1232339957367660e-17  -3.0901699437494734e-01  -5.8778525229247303e-01  -8.0901699437494734e-01  -9.5105651629515353e-01  -1.0000000000000000e+00  -9.5105651629515353e-01  -8.0901699437494756e-01  -5.8778525229247325e-01  -3.0901699437494756e-01  -1.8369701987210297e-16  3.0901699437494723e-01  5.8778525229247292e-01  8.0901699437494734e-01  9.5105651629515353e-01  1.0000000000000000e+00  </DataArray> 
</PointData> 
</Piece>
</UnstructuredGrid>
</VTKFile>