<?xml version="1.0"?>
<VTKFile type="UnstructuredGrid"  version="0.1"  >
<UnstructuredGrid>
<Piece  NumberOfPoints="4225" NumberOfCells="4096">
<Points>
<DataArray  type="Float64"  NumberOfComponents="3"  format="ascii">0 0 0  0.015625 0 0  0.03125 0 0  0.046875 0 0  0.0625 0 0  0.078125 0 0  0.09375 0 0  0.109375 0 0  0.125 0 0  0.140625 0 0  0.15625 0 0  0.171875 0 0  0.1875 0 0  0.203125 0 0  0.21875 0 0  0.234375 0 0  0.25 0 0  0.265625 0 0  0.28125 0 0  0.296875 0 0  0.3125 0 0  0.328125 0 0  0.34375 0 0  0.359375 0 0  0.375 0 0  0.390625 0 0  0.40625 0 0  0.421875 0 0  0.4375 0 0  0.453125 0 0  0.46875 0 0  0.484375 0 0  0.5 0 0  0.515625 0 0  0.53125 0 0  0.546875 0 0  0.5625 0 0  0.578125 0 0  0.59375 0 0  0.609375 0 0  0.625 0 0  0.640625 0 0  0.65625 0 0  0.671875 0 0  0.6875 0 0  0.703125 0 0  0.71875 0 0  0.734375 0 0  0.75 0 0  0.765625 0 0  0.78125 0 0  0.796875 0 0  0.8125 0 0  0.828125 0 0  0.84375 0 0  0.859375 0 0  0.875 0 0  0.890625 0 0  0.90625 0 0  0.921875 0 0  0.9375 0 0  0.953125 0 0  0.96875 0 0  0.984375 0 0  1 0 0  0 0.015625 0  0.015625 0.015625 0  0.03125 0.015625 0  0.046875 0.015625 0  0.0625 0.015625 0  0.078125 0.015625 0  0.09375 0.015625 0  0.109375 0.015625 0  0.125 0.015625 0  0.140625 0.015625 0  0.15625 0.015625 0  0.171875 0.015625 0  0.1875 0.015625 0  0.203125 0.015625 0  0.21875 0.015625 0  0.234375 0.015625 0  0.25 0.015625 0  0.265625 0.015625 0  0.28125 0.015625 0  0.296875 0.015625 0  0.3125 0.015625 0  0.328125 0.015625 0  0.34375 0.015625 0  0.359375 0.015625 0  0.375 0.015625 0  0.390625 0.015625 0  0.40625 0.015625 0  0.421875 0.015625 0  0.4375 0.015625 0  0.453125 0.015625 0  0.46875 0.015625 0  0.484375 0.015625 0  0.5 0.015625 0  0.515625 0.015625 0  0.53125 0.015625 0  0.546875 0.015625 0  0.5625 0.015625 0  0.578125 0.015625 0  0.59375 0.015625 0  0.609375 0.015625 0  0.625 0.015625 0  0.640625 0.015625 0  0.65625 0.015625 0  0.671875 0.015625 0  0.6875 0.015625 0  0.703125 0.015625 0  0.71875 0.015625 0  0.734375 0.015625 0  0.75 0.015625 0  0.765625 0.015625 0  0.78125 0.015625 0  0.796875 0.015625 0  0.8125 0.015625 0  0.828125 0.015625 0  0.84375 0.015625 0  0.859375 0.015625 0  0.875 0.015625 0  0.890625 0.015625 0  0.90625 0.015625 0  0.921875 0.015625 0  0.9375 0.015625 0  0.953125 0.015625 0  0.96875 0.015625 0  0.984375 0.015625 0  1 0.015625 0  0 0.03125 0  0.015625 0.03125 0  0.03125 0.03125 0  0.046875 0.03125 0  0.0625 0.03125 0  0.078125 0.03125 0  0.09375 0.03125 0  0.109375 0.03125 0  0.125 0.03125 0  0.140625 0.03125 0  0.15625 0.03125 0  0.171875 0.03125 0  0.1875 0.03125 0  0.203125 0.03125 0  0.21875 0.03125 0  0.234375 0.03125 0  0.25 0.03125 0  0.265625 0.03125 0  0.28125 0.03125 0  0.296875 0.03125 0  0.3125 0.03125 0  0.328125 0.03125 0  0.34375 0.03125 0  0.359375 0.03125 0  0.375 0.03125 0  0.390625 0.03125 0  0.40625 0.03125 0  0.421875 0.03125 0  0.4375 0.03125 0  0.453125 0.03125 0  0.46875 0.03125 0  0.484375 0.03125 0  0.5 0.03125 0  0.515625 0.03125 0  0.53125 0.03125 0  0.546875 0.03125 0  0.5625 0.03125 0  0.578125 0.03125 0  0.59375 0.03125 0  0.609375 0.03125 0  0.625 0.03125 0  0.640625 0.03125 0  0.65625 0.03125 0  0.671875 0.03125 0  0.6875 0.03125 0  0.703125 0.03125 0  0.71875 0.03125 0  0.734375 0.03125 0  0.75 0.03125 0  0.765625 0.03125 0  0.78125 0.03125 0  0.796875 0.03125 0  0.8125 0.03125 0  0.828125 0.03125 0  0.84375 0.03125 0  0.859375 0.03125 0  0.875 0.03125 0  0.890625 0.03125 0  0.90625 0.03125 0  0.921875 0.03125 0  0.9375 0.03125 0  0.953125 0.03125 0  0.96875 0.03125 0  0.984375 0.03125 0  1 0.03125 0  0 0.046875 0  0.015625 0.046875 0  0.03125 0.046875 0  0.046875 0.046875 0  0.0625 0.046875 0  0.078125 0.046875 0  0.09375 0.046875 0  0.109375 0.046875 0  0.125 0.046875 0  0.140625 0.046875 0  0.15625 0.046875 0  0.171875 0.046875 0  0.1875 0.046875 0  0.203125 0.046875 0  0.21875 0.046875 0  0.234375 0.046875 0  0.25 0.046875 0  0.265625 0.046875 0  0.28125 0.046875 0  0.296875 0.046875 0  0.3125 0.046875 0  0.328125 0.046875 0  0.34375 0.046875 0  0.359375 0.046875 0  0.375 0.046875 0  0.390625 0.046875 0  0.40625 0.046875 0  0.421875 0.046875 0  0.4375 0.046875 0  0.453125 0.046875 0  0.46875 0.046875 0  0.484375 0.046875 0  0.5 0.046875 0  0.515625 0.046875 0  0.53125 0.046875 0  0.546875 0.046875 0  0.5625 0.046875 0  0.578125 0.046875 0  0.59375 0.046875 0  0.609375 0.046875 0  0.625 0.046875 0  0.640625 0.046875 0  0.65625 0.046875 0  0.671875 0.046875 0  0.6875 0.046875 0  0.703125 0.046875 0  0.71875 0.046875 0  0.734375 0.046875 0  0.75 0.046875 0  0.765625 0.046875 0  0.78125 0.046875 0  0.796875 0.046875 0  0.8125 0.046875 0  0.828125 0.046875 0  0.84375 0.046875 0  0.859375 0.046875 0  0.875 0.046875 0  0.890625 0.046875 0  0.90625 0.046875 0  0.921875 0.046875 0  0.9375 0.046875 0  0.953125 0.046875 0  0.96875 0.046875 0  0.984375 0.046875 0  1 0.046875 0  0 0.0625 0  0.015625 0.0625 0  0.03125 0.0625 0  0.046875 0.0625 0  0.0625 0.0625 0  0.078125 0.0625 0  0.09375 0.0625 0  0.109375 0.0625 0  0.125 0.0625 0  0.140625 0.0625 0  0.15625 0.0625 0  0.171875 0.0625 0  0.1875 0.0625 0  0.203125 0.0625 0  0.21875 0.0625 0  0.234375 0.0625 0  0.25 0.0625 0  0.265625 0.0625 0  0.28125 0.0625 0  0.296875 0.0625 0  0.3125 0.0625 0  0.328125 0.0625 0  0.34375 0.0625 0  0.359375 0.0625 0  0.375 0.0625 0  0.390625 0.0625 0  0.40625 0.0625 0  0.421875 0.0625 0  0.4375 0.0625 0  0.453125 0.0625 0  0.46875 0.0625 0  0.484375 0.0625 0  0.5 0.0625 0  0.515625 0.0625 0  0.53125 0.0625 0  0.546875 0.0625 0  0.5625 0.0625 0  0.578125 0.0625 0  0.59375 0.0625 0  0.609375 0.0625 0  0.625 0.0625 0  0.640625 0.0625 0  0.65625 0.0625 0  0.671875 0.0625 0  0.6875 0.0625 0  0.703125 0.0625 0  0.71875 0.0625 0  0.734375 0.0625 0  0.75 0.0625 0  0.765625 0.0625 0  0.78125 0.0625 0  0.796875 0.0625 0  0.8125 0.0625 0  0.828125 0.0625 0  0.84375 0.0625 0  0.859375 0.0625 0  0.875 0.0625 0  0.890625 0.0625 0  0.90625 0.0625 0  0.921875 0.0625 0  0.9375 0.0625 0  0.953125 0.0625 0  0.96875 0.0625 0  0.984375 0.0625 0  1 0.0625 0  0 0.078125 0  0.015625 0.078125 0  0.03125 0.078125 0  0.046875 0.078125 0  0.0625 0.078125 0  0.078125 0.078125 0  0.09375 0.078125 0  0.109375 0.078125 0  0.125 0.078125 0  0.140625 0.078125 0  0.15625 0.078125 0  0.171875 0.078125 0  0.1875 0.078125 0  0.203125 0.078125 0  0.21875 0.078125 0  0.234375 0.078125 0  0.25 0.078125 0  0.265625 0.078125 0  0.28125 0.078125 0  0.296875 0.078125 0  0.3125 0.078125 0  0.328125 0.078125 0  0.34375 0.078125 0  0.359375 0.078125 0  0.375 0.078125 0  0.390625 0.078125 0  0.40625 0.078125 0  0.421875 0.078125 0  0.4375 0.078125 0  0.453125 0.078125 0  0.46875 0.078125 0  0.484375 0.078125 0  0.5 0.078125 0  0.515625 0.078125 0  0.53125 0.078125 0  0.546875 0.078125 0  0.5625 0.078125 0  0.578125 0.078125 0  0.59375 0.078125 0  0.609375 0.078125 0  0.625 0.078125 0  0.640625 0.078125 0  0.65625 0.078125 0  0.671875 0.078125 0  0.6875 0.078125 0  0.703125 0.078125 0  0.71875 0.078125 0  0.734375 0.078125 0  0.75 0.078125 0  0.765625 0.078125 0  0.78125 0.078125 0  0.796875 0.078125 0  0.8125 0.078125 0  0.828125 0.078125 0  0.84375 0.078125 0  0.859375 0.078125 0  0.875 0.078125 0  0.890625 0.078125 0  0.90625 0.078125 0  0.921875 0.078125 0  0.9375 0.078125 0  0.953125 0.078125 0  0.96875 0.078125 0  0.984375 0.078125 0  1 0.078125 0  0 0.09375 0  0.015625 0.09375 0  0.03125 0.09375 0  0.046875 0.09375 0  0.0625 0.09375 0  0.078125 0.09375 0  0.09375 0.09375 0  0.109375 0.09375 0  0.125 0.09375 0  0.140625 0.09375 0  0.15625 0.09375 0  0.171875 0.09375 0  0.1875 0.09375 0  0.203125 0.09375 0  0.21875 0.09375 0  0.234375 0.09375 0  0.25 0.09375 0  0.265625 0.09375 0  0.28125 0.09375 0  0.296875 0.09375 0  0.3125 0.09375 0  0.328125 0.09375 0  0.34375 0.09375 0  0.359375 0.09375 0  0.375 0.09375 0  0.390625 0.09375 0  0.40625 0.09375 0  0.421875 0.09375 0  0.4375 0.09375 0  0.453125 0.09375 0  0.46875 0.09375 0  0.484375 0.09375 0  0.5 0.09375 0  0.515625 0.09375 0  0.53125 0.09375 0  0.546875 0.09375 0  0.5625 0.09375 0  0.578125 0.09375 0  0.59375 0.09375 0  0.609375 0.09375 0  0.625 0.09375 0  0.640625 0.09375 0  0.65625 0.09375 0  0.671875 0.09375 0  0.6875 0.09375 0  0.703125 0.09375 0  0.71875 0.09375 0  0.734375 0.09375 0  0.75 0.09375 0  0.765625 0.09375 0  0.78125 0.09375 0  0.796875 0.09375 0  0.8125 0.09375 0  0.828125 0.09375 0  0.84375 0.09375 0  0.859375 0.09375 0  0.875 0.09375 0  0.890625 0.09375 0  0.90625 0.09375 0  0.921875 0.09375 0  0.9375 0.09375 0  0.953125 0.09375 0  0.96875 0.09375 0  0.984375 0.09375 0  1 0.09375 0  0 0.109375 0  0.015625 0.109375 0  0.03125 0.109375 0  0.046875 0.109375 0  0.0625 0.109375 0  0.078125 0.109375 0  0.09375 0.109375 0  0.109375 0.109375 0  0.125 0.109375 0  0.140625 0.109375 0  0.15625 0.109375 0  0.171875 0.109375 0  0.1875 0.109375 0  0.203125 0.109375 0  0.21875 0.109375 0  0.234375 0.109375 0  0.25 0.109375 0  0.265625 0.109375 0  0.28125 0.109375 0  0.296875 0.109375 0  0.3125 0.109375 0  0.328125 0.109375 0  0.34375 0.109375 0  0.359375 0.109375 0  0.375 0.109375 0  0.390625 0.109375 0  0.40625 0.109375 0  0.421875 0.109375 0  0.4375 0.109375 0  0.453125 0.109375 0  0.46875 0.109375 0  0.484375 0.109375 0  0.5 0.109375 0  0.515625 0.109375 0  0.53125 0.109375 0  0.546875 0.109375 0  0.5625 0.109375 0  0.578125 0.109375 0  0.59375 0.109375 0  0.609375 0.109375 0  0.625 0.109375 0  0.640625 0.109375 0  0.65625 0.109375 0  0.671875 0.109375 0  0.6875 0.109375 0  0.703125 0.109375 0  0.71875 0.109375 0  0.734375 0.109375 0  0.75 0.109375 0  0.765625 0.109375 0  0.78125 0.109375 0  0.796875 0.109375 0  0.8125 0.109375 0  0.828125 0.109375 0  0.84375 0.109375 0  0.859375 0.109375 0  0.875 0.109375 0  0.890625 0.109375 0  0.90625 0.109375 0  0.921875 0.109375 0  0.9375 0.109375 0  0.953125 0.109375 0  0.96875 0.109375 0  0.984375 0.109375 0  1 0.109375 0  0 0.125 0  0.015625 0.125 0  0.03125 0.125 0  0.046875 0.125 0  0.0625 0.125 0  0.078125 0.125 0  0.09375 0.125 0  0.109375 0.125 0  0.125 0.12
[...]
<PointData  Scalars="f_10066"> 
<DataArray  type="Float64"  Name="f_10066"  format="ascii">1.0000000000000000e+00  9.9518472667219693e-01  9.8078528040323054e-01  9.5694033573220882e-01  9.2387953251128663e-01  8.8192126434835505e-01  8.3146961230254524e-01  7.7301045336273699e-01  7.0710678118654757e-01  6.3439328416364549e-01  5.5557023301960229e-01  4.7139673682599786e-01  3.8268343236508984e-01  2.9028467725446233e-01  1.9509032201612836e-01  9.8017140329560770e-02  6.1232339957367660e-17  -9.8017140329560659e-02  -1.9509032201612822e-01  -2.9028467725446216e-01  -3.8268343236508973e-01  -4.7139673682599775e-01  -5.5557023301960196e-01  -6.3439328416364538e-01  -7.0710678118654746e-01  -7.7301045336273699e-01  -8.3146961230254535e-01  -8.8192126434835494e-01  -9.2387953251128663e-01  -9.5694033573220882e-01  -9.8078528040323043e-01  -9.9518472667219682e-01  -1.0000000000000000e+00  -9.9518472667219693e-01  -9.8078528040323032e-01  -9.5694033573220894e-01  -9.2387953251128696e-01  -8.8192126434835505e-01  -8.3146961230254546e-01  -7.7301045336273710e-01  -7.0710678118654768e-01  -6.3439328416364593e-01  -5.5557023301960218e-01  -4.7139673682599786e-01  -3.8268343236509034e-01  -2.9028467725446244e-01  -1.9509032201612866e-01  -9.8017140329560451e-02  -1.8369701987210297e-16  9.8017140329560090e-02  1.9509032201612830e-01  2.9028467725446205e-01  3.8268343236509006e-01  4.7139673682599764e-01  5.5557023301960184e-01  6.3439328416364560e-01  7.0710678118654735e-01  7.7301045336273666e-01  8.3146961230254535e-01  8.8192126434835483e-01  9.2387953251128663e-01  9.5694033573220894e-01  9.8078528040323032e-01  9.9518472667219693e-01  1.0000000000000000e+00  9.9518472667219693e-01  9.9039267026559941e-01  9.7606256416067838e-01  9.5233243979454940e-01  9.1943083301741113e-01  8.7767460448207679e-01  8.2746588955880118e-01  7.6928822565923782e-01  7.0370189551888196e-01  6.3133853137184359e-01  5.5289503198931844e-01  4.6912685116487091e-01  3.8084072228237820e-01  2.8888688903320198e-01  1.9415091710512491e-01  9.7545165701026768e-02  1.0212741168871945e-09  -9.7545163671178936e-02  -1.9415091511389487e-01  -2.8888688710808436e-01  -3.8084072045359496e-01  -4.6912684946667715e-01  -5.5289503046155808e-01  -6.3133853006187513e-01  -7.0370189448405651e-01  -7.6928822497019400e-01  -8.2746588930401987e-01  -8.7767460477441595e-01  -9.1943083400418146e-01  -9.5233244167929287e-01  -9.7606256733179497e-01  -9.9039267687931487e-01  -9.9518476353319518e-01  -9.9039267687931387e-01  -9.7606256733179420e-01  -9.5233244167929210e-01  -9.1943083400418091e-01  -8.7767460477441517e-01  -8.2746588930401854e-01  -7.6928822497019234e-01  -7.0370189448405607e-01  -6.3133853006187490e-01  -5.5289503046155763e-01  -4.6912684946667654e-01  -3.8084072045359452e-01  -2.8888688710808413e-01  -1.9415091511389476e-01  -9.7545163671178825e-02  1.0212743533201753e-09  9.7545165701026948e-02  1.9415091710512511e-01  2.8888688903320192e-01  3.8084072228237831e-01  4.6912685116487102e-01  5.5289503198931833e-01  6.3133853137184259e-01  7.0370189551888185e-01  7.6928822565923738e-01  8.2746588955880074e-01  8.7767460448207713e-01  9.1943083301741069e-01  9.5233243979454962e-01  9.7606256416067905e-01  9.9039267026560018e-01  9.9518472667219693e-01  9.8078528040323032e-01  9.7606256416067827e-01  9.6193980391862310e-01  9.3855303447134131e-01  9.0612748549094646e-01  8.6497543306102498e-01  8.1549319406005416e-01  7.5815730957464333e-01  6.9351995557018553e-01  6.2220362514149563e-01  5.4489513356795527e-01  4.6233900390947508e-01  3.7533029684417502e-01  2.8470695380065897e-01  1.9134172712488220e-01  9.6133774998623772e-02  2.0551633154332571e-09  -9.6133770913186312e-02  -1.9134172311511713e-01  -2.8470694992041828e-01  -3.7533029315260896e-01  -4.6233900047355880e-01  -5.4489513046548066e-01  -6.2220362246474836e-01  -6.9351995343063566e-01  -7.5815730810912996e-01  -8.1549319343922544e-01  -8.6497543350135209e-01  -9.0612748727329206e-01  -9.3855303798070211e-01  -9.6193980984427796e-01  -9.7606257546620157e-01  -9.8078532489309300e-01  -9.7606257546620157e-01  -9.6193980984427696e-01  -9.3855303798070044e-01  -9.0612748727328996e-01  -8.6497543350134998e-01  -8.1549319343922377e-01  -7.5815730810912829e-01  -6.9351995343063433e-01  -6.2220362246474725e-01  -5.4489513046547922e-01  -4.6233900047355753e-01  -3.7533029315260757e-01  -2.8470694992041723e-01  -1.9134172311511644e-01  -9.6133770913185618e-02  2.0551640487462355e-09  9.6133774998624397e-02  1.9134172712488287e-01  2.8470695380065947e-01  3.7533029684417529e-01  4.6233900390947513e-01  5.4489513356795538e-01  6.2220362514149563e-01  6.9351995557018542e-01  7.5815730957464289e-01  8.1549319406005394e-01  8.6497543306102542e-01  9.0612748549094668e-01  9.3855303447134220e-01  9.6193980391862388e-01  9.7606256416067927e-01  9.8078528040323054e-01  9.5694033573220871e-01  9.5233243979454962e-01  9.3855303447134131e-01  9.1573484715787667e-01  8.8409763174248079e-01  8.4394607226288110e-01  7.9566685033549744e-01  7.3972492136004531e-01  6.7665903676829953e-01  6.0707655556151452e-01  5.3164759511603588e-01  4.5109857758986321e-01  3.6620523408242694e-01  2.7778513392167192e-01  1.8668981102570284e-01  9.3796563166558031e-02  3.1137755947870819e-09  -9.3796556975088291e-02  -1.8668980494391865e-01  -2.7778512802757432e-01  -3.6620522846159415e-01  -4.5109857233903738e-01  -5.3164759034732900e-01  -6.0707655140752848e-01  -6.7665903338856137e-01  -7.3972491894935377e-01  -7.9566684913507135e-01  -8.4394607257580978e-01  -8.8409763395674568e-01  -9.1573485179195691e-01  -9.3855304237847059e-01  -9.5233245406686839e-01  -9.5694038358977773e-01  -9.5233245406686895e-01  -9.3855304237847004e-01  -9.1573485179195468e-01  -8.8409763395674368e-01  -8.4394607257580656e-01  -7.9566684913506835e-01  -7.3972491894935088e-01  -6.7665903338855904e-01  -6.0707655140752603e-01  -5.3164759034732700e-01  -4.5109857233903550e-01  -3.6620522846159226e-01  -2.7778512802757255e-01  -1.8668980494391749e-01  -9.3796556975087153e-02  3.1137768202661026e-09  9.3796563166559044e-02  1.8668981102570378e-01  2.7778513392167276e-01  3.6620523408242733e-01  4.5109857758986344e-01  5.3164759511603621e-01  6.0707655556151452e-01  6.7665903676829919e-01  7.3972492136004586e-01  7.9566685033549811e-01  8.4394607226288187e-01  8.8409763174248124e-01  9.1573484715787767e-01  9.3855303447134231e-01  9.5233243979455029e-01  9.5694033573220894e-01  9.2387953251128674e-01  9.1943083301741091e-01  9.0612748549094624e-01  8.8409763174248091e-01  8.5355343348145218e-01  8.1478904838913002e-01  7.6817779884595527e-01  7.1416857677965628e-01  6.5328152061094280e-01  5.8610300604365262e-01  5.1327999895090792e-01  4.3551382474346345e-01  3.5355341422508096e-01  2.6818809098131463e-01  1.8023996976328313e-01  9.0556039074266126e-02  4.2082312279017157e-09  -9.0556030703648371e-02  -1.8023996153200489e-01  -2.6818808298837232e-01  -3.5355340657893330e-01  -4.3551381756645902e-01  -5.1327999238442490e-01  -5.8610300025426698e-01  -6.5328151579804061e-01  -7.1416857318507487e-01  -7.6817779676649411e-01  -8.1478904819318143e-01  -8.5355343563235087e-01  -8.8409763684124087e-01  -9.0612749446434870e-01  -9.1943084892953741e-01  -9.2387958166067274e-01  -9.1943084892953708e-01  -9.0612749446434793e-01  -8.8409763684123843e-01  -8.5355343563234720e-01  -8.1478904819317755e-01  -7.6817779676649078e-01  -7.1416857318507132e-01  -6.5328151579803684e-01  -5.8610300025426365e-01  -5.1327999238442190e-01  -4.3551381756645613e-01  -3.5355340657893047e-01  -2.6818808298836999e-01  -1.8023996153200306e-01  -9.0556030703646775e-02  4.2082328586321708e-09  9.0556039074267569e-02  1.8023996976328438e-01  2.6818809098131557e-01  3.5355341422508169e-01  4.3551382474346406e-01  5.1327999895090826e-01  5.8610300604365284e-01  6.5328152061094402e-01  7.1416857677965773e-01  7.6817779884595716e-01  8.1478904838913180e-01  8.5355343348145329e-01  8.8409763174248179e-01  9.0612748549094724e-01  9.1943083301741135e-01  9.2387953251128663e-01  8.8192126434835505e-01  8.7767460448207690e-01  8.6497543306102509e-01  8.4394607226288154e-01  8.1478904838913013e-01  7.7778515985600849e-01  7.3329077449927160e-01  6.8173439769221078e-01  6.2361254562142210e-01  5.5948496357046451e-01  4.8996923527088276e-01  4.1573483523639099e-01  3.3749668135974142e-01  2.5600824986446735e-01  1.7205431891841186e-01  8.6443410792108169e-02  5.3482330937651021e-09  -8.6443400149458727e-02  -1.7205430843929773e-01  -2.5600823966495306e-01  -3.3749667156677793e-01  -4.1573482599284478e-01  -4.8996922674130161e-01  -5.5948495594787850e-01  -6.2361253913556580e-01  -6.8173439261965985e-01  -7.3329077117613906e-01  -7.7778515869406262e-01  -8.1478904989706924e-01  -8.4394607708337344e-01  -8.6497544214149735e-01  -8.7767462078954805e-01  -8.8192131299473864e-01  -8.7767462078954750e-01  -8.6497544214149580e-01  -8.4394607708337022e-01  -8.1478904989706513e-01  -7.7778515869405807e-01  -7.3329077117613517e-01  -6.8173439261965618e-01  -6.2361253913556203e-01  -5.5948495594787473e-01  -4.8996922674129828e-01  -4.1573482599284178e-01  -3.3749667156677482e-01  -2.5600823966495023e-01  -1.7205430843929528e-01  -8.6443400149456659e-02  5.3482351202379322e-09  8.6443410792110015e-02  1.7205431891841355e-01  2.5600824986446891e-01  3.3749668135974281e-01  4.1573483523639182e-01  4.8996923527088321e-01  5.5948496357046473e-01  6.2361254562142276e-01  6.8173439769221189e-01  7.3329077449927338e-01  7.7778515985601038e-01  8.1478904838913180e-01  8.4394607226288265e-01  8.6497543306102587e-01  8.7767460448207746e-01  8.8192126434835516e-01  8.3146961230254524e-01  8.2746588955880152e-01  8.1549319406005394e-01  7.9566685033549778e-01  7.6817779884595572e-01  7.3329077449927160e-01  6.9134175856511026e-01  6.4273474311657219e-01  5.8793784037961583e-01  5.2747877456092840e-01  4.6193979957859993e-01  3.9195209164128531e-01  3.1818967067846066e-01  2.4136290916180986e-01  1.6221169083141246e-01  8.1498285212009663e-02  6.5417067442441910e-09  -8.1498272188314902e-02  -1.6221167798914876e-01  -2.4136289662960375e-01  -3.1818965859676601e-01  -3.9195208016777261e-01  -4.6193978889424725e-01  -5.2747876487708012e-01  -5.8793783194632410e-01  -6.4273473623259447e-01  -6.9134175358999206e-01  -7.3329077186801039e-01  -7.6817779908735484e-01  -7.9566685410348215e-01  -8.1549320228863365e-01  -8.2746590507098239e-01  -8.3146965877742707e-01  -8.2746590507098172e-01  -8.1549320228863209e-01  -7.9566685410347915e-01  -7.6817779908735107e-01  -7.3329077186800606e-01  -6.9134175358998784e-01  -6.4273473623259036e-01  -5.8793783194632065e-01  -5.2747876487707634e-01  -4.6193978889424370e-01  -3.9195208016776928e-01  -3.1818965859676274e-01  -2.4136289662960073e-01  -1.6221167798914601e-01  -8.1498272188312404e-02  6.5417091799239161e-09  8.1498285212011912e-02  1.6221169083141454e-01  2.4136290916181188e-01  3.1818967067846249e-01  3.9195209164128669e-01  4.6193979957860093e-01  5.2747877456092951e-01  5.8793784037961738e-01  6.4273474311657397e-01  6.9134175856511260e-01  7.3329077449927405e-01  7.6817779884595783e-01  7.9566685033549966e-01  8.1549319406005505e-01  8.2746588955880174e-01  8.3146961230254524e-01  7.7301045336273699e-01  7.6928822565923771e-01  7.5815730957464278e-01  7.3972492136004475e-01  7.1416857677965584e-01  6.8173439769221011e-01  6.4273474311657142e-01  5.9754520115859355e-01  5.4660097190417667e-01  4.9039267620788690e-01  4.2946163074843874e-01  3.6439463485536028e-01  2.9581831931255481e-01  2.2439311156288377e-01  1.5080687543218446e-01  7.5768286625697387e-02  7.7945225001964617e-09  -7.5768271100013176e-02  -1.5080686009895844e-01  -2.2439309655842329e-01  -2.9581830478546628e-01  -3.6439462097207070e-01  -4.2946161769935004e-01  -4.9039266421437938e-01  -5.4660096122669355e-01  -5.9754519210607282e-01  -6.4273473605746423e-01  -6.8173439306732520e-01  -7.1416857511757403e-01  -7.3972492330344097e-01  -7.5815731602042391e-01  -7.6928823924983725e-01  -7.7301049611582018e-01  -7.6928823924983580e-01  -7.5815731602042247e-01  -7.3972492330343864e-01  -7.1416857511757081e-01  -6.8173439306732186e-01  -6.4273473605745990e-01  -5.9754519210606916e-01  -5.4660096122668966e-01  -4.9039266421437527e-01  -4.2946161769934615e-01  -3.6439462097206715e-01  -2.9581830478546284e-01  -2.2439309655841999e-01  -1.5080686009895539e-01  -7.5768271100010429e-02  7.7945253489692103e-09  7.5768286625699996e-02  1.5080687543218707e-01  2.2439311156288627e-01  2.9581831931255748e-01  3.6439463485536278e-01  4.2946163074844046e-01  4.9039267620788840e-01  5.4660097190417911e-01  5.9754520115859622e-01  6.4273474311657430e-01  6.8173439769221300e-01  7.1416857677965839e-01  7.3972492136004708e-01  7.5815730957464367e-01  7.6928822565923749e-01  7.7301045336273710e-01  7.0710678118654757e-01  7.0370189551888174e-01  6.9351995557018398e-01  6.7665903676829842e-01  6.5328152061094225e-01  6.2361254562142043e-01  5.8793784037961483e-01  5.4660097190417611e-01  5.0000003692450934e-01  4.4858382799416013e-01  3.9284751137508300e-01  3.3332785831759548e-01  2.7059807566137589e-01  2.0526228554162107e-01  1.3794970736381645e-01  6.9308598077900019e-02  9.1103054420398085e-09  -6.9308579921930208e-02  -1.3794968940416338e-01  -2.0526226791721480e-01  -2.7059805852348479e-01  -3.3332784183528624e-01  -3.9284749574122074e-01  -4.4858381343211357e-01  -5.0000002369572771e-01  -5.4660096031679783e-01  -5.8793783079822659e-01  -6.2361253847805020e-01  -6.5328151641782140e-01  -6.7665903613996303e-01  -6.9351995934914301e-01  -7.0370190613708661e-01  -7.0710681878982906e-01  -7.0370190613708583e-01  -6.9351995934914146e-01  -6.7665903613996070e-01  -6.5328151641781806e-01  -6.2361253847804654e-01  -5.8793783079822293e-01  -5.4660096031679406e-01  -5.0000002369572383e-01  -4.4858381343210968e-01  -3.9284749574121697e-01  -3.3332784183528247e-01  -2.7059805852348140e-01  -2.0526226791721144e-01  -1.3794968940416019e-01  -6.9308579921927099e-02  9.1103086379824952e-09  6.9308598077903114e-02  1.3794970736381948e-01  2.0526228554162393e-01  2.7059807566137922e-01  3.3332785831759837e-01  3.9284751137508567e-01  4.4858382799416302e-01  5.0000003692451245e-01  5.4660097190417922e-01  5.8793784037961816e-01  6.2361254562142365e-01  6.5328152061094502e-01  6.7665903676830064e-01  6.9351995557018586e-01  7.0370189551888240e-01  7.0710678118654757e-01  6.3439328416364549e-01  6.3133853137184293e-01  6.2220362514149408e-01  6.0707655556151319e-01  5.8610300604365084e-01  5.5948496357046296e-01  5.2747877456092696e-01  4.9039267620788585e-01  4.4858382799415963e-01  4.0245487205339153e-01  3.5245005550760922e-01  2.9905095212594784e-01  2.4277182450727100e-01  1.8415467145137407e-01  1.2376400821527668e-01  6.2181429923596127e-02  1.0490332621639685e-08  -6.2181409006470928e-02  -1.2376398749110969e-01  -1.8415465105665954e-01  -2.4277180459050501e-01  -2.9905093285286571e-01  -3.5245003706686368e-01  -4.0245485466278819e-01  -4.4858381190756585e-01  -4.9039266172289392e-01  -5.2747876202731359e-01  -5.5948495339944315e-01  -5.8610299871835425e-01  -6.0707655165546937e-01  -6.2220362542978025e-01  -6.3133853805091755e-01  -6.3439331531632825e-01  -6.3133853805091711e-01  -6.2220362542977881e-01  -6.0707655165546748e-01  -5.8610299871835159e-01  -5.5948495339943982e-01  -5.2747876202731048e-01  -4.9039266172289053e-01  -4.4858381190756225e-01  -4.0245485466278424e-01  -3.5245003706685951e-01  -2.9905093285286199e-01  -2.4277180459050132e-01  -1.8415465105665599e-01  -1.2376398749110624e-01  -6.2181409006467514e-02  1.0490336112628023e-08  6.2181429923599610e-02  1.2376400821528002e-01  1.8415467145137729e-01  2.4277182450727430e-01  2.9905095212595117e-01  3.5245005550761271e-01  4.0245487205339497e-01  4.4858382799416308e-01  4.9039267620788918e-01  5.2747877456093029e-01  5.5948496357046584e-01  5.8610300604365395e-01  6.0707655556151563e-01  6.2220362514149630e-01  6.3133853137184370e-01  6.3439328416364549e-01  5.5557023301960229e-01  5.5289503198931855e-01  5.4489513356795483e-01  5.3164759511603477e-01  5.1327999895090659e-01  4.8996923527088154e-01  4.6193979957859882e-01  4.2946163074843779e-01  3.9284751137508256e-01  3.5245005550760944e-01  3.0865831278448730e-01  2.6189402167392994e-01  2.1260754790291303e-01  1.6127354718997955e-01  1.0838639405205984e-01  5.4455420708394417e-02  1.1933511957056202e-08  -5.4455396901482003e-02  -1.0838637042770208e-01  -1.6127352387733057e-01  -2.1260752504247935e-01  -2.6189399942245944e-01  -3.0865829132020101e-01  -3.5245003503585759e-01  -3.9284749213449482e-01  -4.2946161301760027e-01  -4.6193978368325356e-01  -4.8996922159161049e-01  -5.1327998793165108e-01  -5.3164758727941841e-01  -5.4489512961161413e-01  -5.5289503385317440e-01  -5.5557025655273717e-01  -5.5289503385317396e-01  -5.4489512961161268e-01  -5.3164758727941652e-01  -5.1327998793164820e-01  -4.8996922159160750e-01  -4.6193978368325028e-01  -4.2946161301759683e-01  -3.9284749213449144e-01  -3.5245003503585381e-01  -3.0865829132019673e-01  -2.6189399942245545e-01  -2.1260752504247551e-01  -1.6127352387732677e-01  -1.0838637042769834e-01  -5.4455396901478319e-02  1.1933515697382510e-08  5.4455420708398171e-02  1.0838639405206359e-01  1.6127354718998330e-01  2.1260754790291705e-01  2.6189402167393389e-01  3.0865831278449141e-01  3.5245005550761316e-01  3.9284751137508661e-01  4.2946163074844168e-01  4.6193979957860259e-01  4.8996923527088482e-01  5.1327999895090937e-01  5.3164759511603765e-01  5.4489513356795660e-01  5.5289503198931900e-01  5.5557023301960229e-01  4.7139673682599781e-01  4.6912685116487141e-01  4.6233900390947535e-01  4.5109857758986310e-01  4.3551382474346323e-01  4.1573483523639043e-01  3.9195209164128514e-01  3.6439463485536078e-01  3.3332785831759609e-01  2.9905095212594851e-01  2.6189402167393044e-01  2.2221490855600873e-01  1.8039574435822589e-01  1.3683927052289627e-01  9.1964959729067930e-02  4.6204976141968834e-02  1.3436434135453594e-08  -4.6204949323571547e-02  -9.1964933076135777e-02  -1.3683924415261864e-01  -1.8039571839824606e-01  -2.2221488314886956e-01  -2.6189399698177601e-01  -2.9905092833553143e-01  -3.3332783564562979e-01  -3.6439461355421726e-01  -3.9195207200501236e-01  -4.1573481760699338e-01  -4.3551380951774199e-01  -4.5109856523189046e-01  -4.6233899503171899e-01  -4.6912684743314365e-01  -4.7139675170665063e-01  -4.6912684743314298e-01  -4.6233899503171794e-01  -4.5109856523188824e-01  -4.3551380951773916e-01  -4.1573481760699044e-01  -3.9195207200500909e-01  -3.6439461355421365e-01  -3.3332783564562618e-01  -2.9905092833552804e-01  -2.6189399698177179e-01  -2.2221488314886548e-01  -1.8039571839824214e-01  -1.3683924415261470e-01  -9.1964933076131933e-02  -4.6204949323567772e-02  1.3436438076380929e-08  4.6204976141972796e-02  9.1964959729071954e-02  1.3683927052290037e-01  1.8039574435823014e-01  2.2221490855601286e-01  2.6189402167393477e-01  2.9905095212595262e-01  3.3332785831760020e-01  3.6439463485536466e-01  3.9195209164128914e-01  4.1573483523639448e-01  4.3551382474346650e-01  4.5109857758986577e-01  4.6233900390947691e-01  4.6912685116487168e-01  4.7139673682599781e-01  3.8268343236508984e-01  3.8084072228237847e-01  3.7533029684417546e-01  3.6620523408242722e-01  3.5355341422508146e-01  3.3749668135974192e-01  3.1818967067846171e-01  2.9581831931255631e-01  2.7059807566137750e-01  2.4277182450727244e-01  2.1260754790291411e-01  1.8039574435822647e-01  1.4644663118153581e-01  1.1108715691790895e-01  7.4657852656508844e-02  3.7509552530587541e-02  1.4993486303911309e-08  -3.7509522590399726e-02  -7.4657822858520601e-02  -1.1108712736309878e-01  -1.4644660198024806e-01  -1.8039571563410822e-01  -2.1260751979703005e-01  -2.4277179718242820e-01  -2.7059804930666503e-01  -2.9581829414810740e-01  -3.1818964696036672e-01  -3.3749665938508194e-01  -3.5355339433730165e-01  -3.6620521668118849e-01  -3.7533028245085726e-01  -3.8084071227433081e-01  -3.8268343769990443e-01  -3.80840