<?xml version="1.0"?>
<VTKFile type="UnstructuredGrid"  version="0.1"  >
<UnstructuredGrid>
<Piece  NumberOfPoints="25921" NumberOfCells="51200">
<Points>
<DataArray  type="Float64"  NumberOfComponents="3"  format="ascii">0 0 0  0.00625 0 0  0.0125 0 0  0.01875 0 0  0.025 0 0  0.03125 0 0  0.0375 0 0  0.04375 0 0  0.05 0 0  0.05625 0 0  0.0625 0 0  0.06875000000000001 0 0  0.075 0 0  0.08125 0 0  0.08749999999999999 0 0  0.09375 0 0  0.1 0 0  0.10625 0 0  0.1125 0 0  0.11875 0 0  0.125 0 0  0.13125 0 0  0.1375 0 0  0.14375 0 0  0.15 0 0  0.15625 0 0  0.1625 0 0  0.16875 0 0  0.175 0 0  0.18125 0 0  0.1875 0 0  0.19375 0 0  0.2 0 0  0.20625 0 0  0.2125 0 0  0.21875 0 0  0.225 0 0  0.23125 0 0  0.2375 0 0  0.24375 0 0  0.25 0 0  0.25625 0 0  0.2625 0 0  0.26875 0 0  0.275 0 0  0.28125 0 0  0.2875 0 0  0.29375 0 0  0.3 0 0  0.30625 0 0  0.3125 0 0  0.31875 0 0  0.325 0 0  0.33125 0 0  0.3375 0 0  0.34375 0 0  0.35 0 0  0.35625 0 0  0.3625 0 0  0.36875 0 0  0.375 0 0  0.38125 0 0  0.3875 0 0  0.39375 0 0  0.4 0 0  0.40625 0 0  0.4125 0 0  0.41875 0 0  0.425 0 0  0.43125 0 0  0.4375 0 0  0.44375 0 0  0.45 0 0  0.45625 0 0  0.4625 0 0  0.46875 0 0  0.475 0 0  0.48125 0 0  0.4875 0 0  0.49375 0 0  0.5 0 0  0.50625 0 0  0.5125 0 0  0.51875 0 0  0.525 0 0  0.53125 0 0  0.5375 0 0  0.54375 0 0  0.55 0 0  0.55625 0 0  0.5625 0 0  0.56875 0 0  0.575 0 0  0.58125 0 0  0.5875 0 0  0.59375 0 0  0.6 0 0  0.60625 0 0  0.6125 0 0  0.61875 0 0  0.625 0 0  0.63125 0 0  0.6375 0 0  0.64375 0 0  0.65 0 0  0.65625 0 0  0.6625 0 0  0.66875 0 0  0.675 0 0  0.68125 0 0  0.6875 0 0  0.69375 0 0  0.7 0 0  0.70625 0 0  0.7125 0 0  0.71875 0 0  0.725 0 0  0.73125 0 0  0.7375 0 0  0.74375 0 0  0.75 0 0  0.75625 0 0  0.7625 0 0  0.76875 0 0  0.775 0 0  0.78125 0 0  0.7875 0 0  0.79375 0 0  0.8 0 0  0.80625 0 0  0.8125 0 0  0.81875 0 0  0.825 0 0  0.83125 0 0  0.8375 0 0  0.84375 0 0  0.85 0 0  0.85625 0 0  0.8625 0 0  0.86875 0 0  0.875 0 0  0.88125 0 0  0.8875 0 0  0.89375 0 0  0.9 0 0  0.90625 0 0  0.9125 0 0  0.91875 0 0  0.925 0 0  0.93125 0 0  0.9375 0 0  0.94375 0 0  0.95 0 0  0.95625 0 0  0.9625 0 0  0.96875 0 0  0.975 0 0  0.98125 0 0  0.9875 0 0  0.99375 0 0  1 0 0  0 0.00625 0  0.00625 0.00625 0  0.0125 0.00625 0  0.01875 0.00625 0  0.025 0.00625 0  0.03125 0.00625 0  0.0375 0.00625 0  0.04375 0.00625 0  0.05 0.00625 0  0.05625 0.00625 0  0.0625 0.00625 0  0.06875000000000001 0.00625 0  0.075 0.00625 0  0.08125 0.00625 0  0.08749999999999999 0.00625 0  0.09375 0.00625 0  0.1 0.00625 0  0.10625 0.00625 0  0.1125 0.00625 0  0.11875 0.00625 0  0.125 0.00625 0  0.13125 0.00625 0  0.1375 0.00625 0  0.14375 0.00625 0  0.15 0.00625 0  0.15625 0.00625 0  0.1625 0.00625 0  0.16875 0.00625 0  0.175 0.00625 0  0.18125 0.00625 0  0.1875 0.00625 0  0.19375 0.00625 0  0.2 0.00625 0  0.20625 0.00625 0  0.2125 0.00625 0  0.21875 0.00625 0  0.225 0.00625 0  0.23125 0.00625 0  0.2375 0.00625 0  0.24375 0.00625 0  0.25 0.00625 0  0.25625 0.00625 0  0.2625 0.00625 0  0.26875 0.00625 0  0.275 0.00625 0  0.28125 0.00625 0  0.2875 0.00625 0  0.29375 0.00625 0  0.3 0.00625 0  0.30625 0.00625 0  0.3125 0.00625 0  0.31875 0.00625 0  0.325 0.00625 0  0.33125 0.00625 0  0.3375 0.00625 0  0.34375 0.00625 0  0.35 0.00625 0  0.35625 0.00625 0  0.3625 0.00625 0  0.36875 0.00625 0  0.375 0.00625 0  0.38125 0.00625 0  0.3875 0.00625 0  0.39375 0.00625 0  0.4 0.00625 0  0.40625 0.00625 0  0.4125 0.00625 0  0.41875 0.00625 0  0.425 0.00625 0  0.43125 0.00625 0  0.4375 0.00625 0  0.44375 0.00625 0  0.45 0.00625 0  0.45625 0.00625 0  0.4625 0.00625 0  0.46875 0.00625 0  0.475 0.00625 0  0.48125 0.00625 0  0.4875 0.00625 0  0.49375 0.00625 0  0.5 0.00625 0  0.50625 0.00625 0  0.5125 0.00625 0  0.51875 0.00625 0  0.525 0.00625 0  0.53125 0.00625 0  0.5375 0.00625 0  0.54375 0.00625 0  0.55 0.00625 0  0.55625 0.00625 0  0.5625 0.00625 0  0.56875 0.00625 0  0.575 0.00625 0  0.58125 0.00625 0  0.5875 0.00625 0  0.59375 0.00625 0  0.6 0.00625 0  0.60625 0.00625 0  0.6125 0.00625 0  0.61875 0.00625 0  0.625 0.00625 0  0.63125 0.00625 0  0.6375 0.00625 0  0.64375 0.00625 0  0.65 0.00625 0  0.65625 0.00625 0  0.6625 0.00625 0  0.66875 0.00625 0  0.675 0.00625 0  0.68125 0.00625 0  0.6875 0.00625 0  0.69375 0.00625 0  0.7 0.00625 0  0.70625 0.00625 0  0.7125 0.00625 0  0.71875 0.00625 0  0.725 0.00625 0  0.73125 0.00625 0  0.7375 0.00625 0  0.74375 0.00625 0  0.75 0.00625 0  0.75625 0.00625 0  0.7625 0.00625 0  0.76875 0.00625 0  0.775 0.00625 0  0.78125 0.00625 0  0.7875 0.00625 0  0.79375 0.00625 0  0.8 0.00625 0  0.80625 0.00625 0  0.8125 0.00625 0  0.81875 0.00625 0  0.825 0.00625 0  0.83125 0.00625 0  0.8375 0.00625 0  0.84375 0.00625 0  0.85 0.00625 0  0.85625 0.00625 0  0.8625 0.00625 0  0.86875 0.00625 0  0.875 0.00625 0  0.88125 0.00625 0  0.8875 0.00625 0  0.89375 0.00625 0  0.9 0.00625 0  0.90625 0.00625 0  0.9125 0.00625 0  0.91875 0.00625 0  0.925 0.00625 0  0.93125 0.00625 0  0.9375 0.00625 0  0.94375 0.00625 0  0.95 0.00625 0  0.95625 0.00625 0  0.9625 0.00625 0  0.96875 0.00625 0  0.975 0.00625 0  0.98125 0.00625 0  0.9875 0.00625 0  0.99375 0.00625 0  1 0.00625 0  0 0.0125 0  0.00625 0.0125 0  0.0125 0.0125 0  0.01875 0.0125 0  0.025 0.0125 0  0.03125 0.0125 0  0.0375 0.0125 0  0.04375 0.0125 0  0.05 0.0125 0  0.05625 0.0125 0  0.0625 0.0125 0  0.06875000000000001 0.0125 0  0.075 0.0125 0  0.08125 0.0125 0  0.08749999999999999 0.0125 0  0.09375 0.0125 0  0.1 0.0125 0  0.10625 0.0125 0  0.1125 0.0125 0  0.11875 0.0125 0  0.125 0.0125 0  0.13125 0.0125 0  0.1375 0.0125 0  0.14375 0.0125 0  0.15 0.0125 0  0.15625 0.0125 0  0.1625 0.0125 0  0.16875 0.0125 0  0.175 0.0125 0  0.18125 0.0125 0  0.1875 0.0125 0  0.19375 0.0125 0  0.2 0.0125 0  0.20625 0.0125 0  0.2125 0.0125 0  0.21875 0.0125 0  0.225 0.0125 0  0.23125 0.0125 0  0.2375 0.0125 0  0.24375 0.0125 0  0.25 0.0125 0  0.25625 0.0125 0  0.2625 0.0125 0  0.26875 0.0125 0  0.275 0.0125 0  0.28125 0.0125 0  0.2875 0.0125 0  0.29375 0.0125 0  0.3 0.0125 0  0.30625 0.0125 0  0.3125 0.0125 0  0.31875 0.0125 0  0.325 0.0125 0  0.33125 0.0125 0  0.3375 0.0125 0  0.34375 0.0125 0  0.35 0.0125 0  0.35625 0.0125 0  0.3625 0.0125 0  0.36875 0.0125 0  0.375 0.0125 0  0.38125 0.0125 0  0.3875 0.0125 0  0.39375 0.0125 0  0.4 0.0125 0  0.40625 0.0125 0  0.4125 0.0125 0  0.41875 0.0125 0  0.425 0.0125 0  0.43125 0.0125 0  0.4375 0.0125 0  0.44375 0.0125 0  0.45 0.0125 0  0.45625 0.0125 0  0.4625 0.0125 0  0.46875 0.0125 0  0.475 0.0125 0  0.48125 0.0125 0  0.4875 0.0125 0  0.49375 0.0125 0  0.5 0.0125 0  0.50625 0.0125 0  0.5125 0.0125 0  0.51875 0.0125 0  0.525 0.0125 0  0.53125 0.0125 0  0.5375 0.0125 0  0.54375 0.0125 0  0.55 0.0125 0  0.55625 0.0125 0  0.5625 0.0125 0  0.56875 0.0125 0  0.575 0.0125 0  0.58125 0.0125 0  0.5875 0.0125 0  0.59375 0.0125 0  0.6 0.0125 0  0.60625 0.0125 0  0.6125 0.0125 0  0.61875 0.0125 0  0.625 0.0125 0  0.63125 0.0125 0  0.6375 0.0125 0  0.64375 0.0125 0  0.65 0.0125 0  0.65625 0.0125 0  0.6625 0.0125 0  0.66875 0.0125 0  0.675 0.0125 0  0.68125 0.0125 0  0.6875 0.0125 0  0.69375 0.0125 0  0.7 0.0125 0  0.70625 0.0125 0  0.7125 0.0125 0  0.71875 0.0125 0  0.725 0.0125 0  0.73125 0.0125 0  0.7375 0.0125 0  0.74375 0.0125 0  0.75 0.0125 0  0.75625 0.0125 0  0.7625 0.0125 0  0.76875 0.0125 0  0.775 0.0125 0  0.78125 0.0125 0  0.7875 0.0125 0  0.79375 0.0125 0  0.8 0.0125 0  0.80625 0.0125 0  0.8125 0.0125 0  0.81875 0.0125 0  0.825 0.0125 0  0.83125 0.0125 0  0.8375 0.0125 0  0.84375 0.0125 0  0.85 0.0125 0  0.85625 0.0125 0  0.8625 0.0125 0  0.86875 0.0125 0  0.875 0.0125 0  0.88125 0.0125 0  0.8875 0.0125 0  0.89375 0.0125 0  0.9 0.0125 0  0.90625 0.0125 0  0.9125 0.0125 0  0.91875 0.0125 0  0.925 0.0125 0  0.93125 0.0125 0  0.9375 0.0125 0  0.94375 0.0125 0  0.95 0.0125 0  0.95625 0.0125 0  0.9625 0.0125 0  0.96875 0.0125 0  0.975 0.0125 0  0.98125 0.0125 0  0.9875 0.0125 0  0.99375 0.0125 0  1 0.0125 0  0 0.01875 0  0.00625 0.01875 0  0.0125 0.01875 0  0.01875 0.01875 0  0.025 0.01875 0  0.03125 0.01875 0  0.0375 0.01875 0  0.04375 0.01875 0  0.05 0.01875 0  0.05625 0.01875 0  0.0625 0.01875 0  0.06875000000000001 0.01875 0  0.075 0.01875 0  0.08125 0.01875 0  0.08749999999999999 0.01875 0  0.09375 0.01875 0  0.1 0.01875 0  0.10625 0.01875 0  0.1125 0.01875 0  0.11875 0.01875 0  0.125 0.01875 0  0.13125 0.01875 0  0.1375 0.01875 0  0.14375 0.01875 0  0.15 0.01875 0  0.15625 0.01875 0  0.1625 0.01875 0  0.16875 0.01875 0  0.175 0.01875 0  0.18125 0.01875 0  0.1875 0.01875 0  0.19375 0.01875 0  0.2 0.01875 0  0.20625 0.01875 0  0.2125 0.01875 0  0.21875 0.01875 0  0.225 0.01875 0  0.23125 0.01875 0  0.2375 0.01875 0  0.24375 0.01875 0  0.25 0.01875 0  0.25625 0.01875 0  0.2625 0.01875 0  0.26875 0.01875 0  0.275 0.01875 0  0.28125 0.01875 0  0.2875 0.01875 0  0.29375 0.01875 0  0.3 0.01875 0  0.30625 0.01875 0  0.3125 0.01875 0  0.31875 0.01875 0  0.325 0.01875 0  0.33125 0.01875 0  0.3375 0.01875 0  0.34375 0.01875 0  0.35 0.01875 0  0.35625 0.01875 0  0.3625 0.01875 0  0.36875 0.01875 0  0.375 0.01875 0  0.38125 0.01875 0  0.3875 0.01875 0  0.39375 0.01875 0  0.4 0.01875 0  0.40625 0.01875 0  0.4125 0.01875 0  0.41875 0.01875 0  0.425 0.01875 0  0.43125 0.01875 0  0.4375 0.01875 0  0.44375 0.01875 0  0.45 0.01875 0  0.45625 0.01875 0  0.4625 0.01875 0  0.46875 0.01875 0  0.475 0.01875 0  0.48125 0.01875 0  0.4875 0.01875 0  0.49375 0.01875 0  0.5 0.01875 0  0.50625 0.01875 0  0.5125 0.01875 0  0.51875 0.01875 0  0.525 0.01875 0  0.53125 0.01875 0  0.5375 0.01875 0  0.54375 0.01875 0  0.55 0.01875 0  0.55625 0.01875 0  0.5625 0.01875 0  0.56875 0.01875 0  0.575 0.01875 0  0.58125 0.01875 0  0.5875 0.01875 0  0.59375 0.01875 0  0.6 0.01875 0  0.60625 0.01875 0  0.6125 0.01875 0  0.61875 0.01875 0  0.625 0.01875 0  0.63125 0.01875 0  0.6375 0.01875 0  0.64375 0.01875 0  0.65 0.01875 0  0.65625 0.01875 0  0.6625 0.01875 0  0.66875 0.01875 0  0.675 0.01875 0  0.68125 0.01875 0  0.6875 0.01875 0  0.69375 0.01875 0  0.7 0.01875 0  0.70625 0.01875 0  0.7125 0.01875 0  0.71875 0.01875 0  0.725 0.01
[...]
<PointData  Scalars="f_20236"> 
<DataArray  type="Float64"  Name="f_20236"  format="ascii">1.0000000000000000e+00  9.9922903624072290e-01  9.9691733373312796e-01  9.9306845695492629e-01  9.8768834059513777e-01  9.8078528040323043e-01  9.7236992039767656e-01  9.6245523645364728e-01  9.5105651629515353e-01  9.3819133592248405e-01  9.2387953251128674e-01  9.0814317382508125e-01  8.9100652418836790e-01  8.7249600707279718e-01  8.5264016435409218e-01  8.3146961230254524e-01  8.0901699437494745e-01  7.8531693088074495e-01  7.6040596560003093e-01  7.3432250943568556e-01  7.0710678118654757e-01  6.7880074553294178e-01  6.4944804833018355e-01  6.1909394930983408e-01  5.8778525229247314e-01  5.5557023301960229e-01  5.2249856471594891e-01  4.8862124149695496e-01  4.5399049973954680e-01  4.1865973753742813e-01  3.8268343236508984e-01  3.4611705707749302e-01  3.0901699437494745e-01  2.7144044986507432e-01  2.3344536385590547e-01  1.9509032201612833e-01  1.5643446504023090e-01  1.1753739745783770e-01  7.8459095727844999e-02  3.9259815759068666e-02  6.1232339957367660e-17  -3.9259815759068326e-02  -7.8459095727844874e-02  -1.1753739745783758e-01  -1.5643446504023104e-01  -1.9509032201612819e-01  -2.3344536385590511e-01  -2.7144044986507421e-01  -3.0901699437494734e-01  -3.4611705707749313e-01  -3.8268343236508973e-01  -4.1865973753742780e-01  -4.5399049973954664e-01  -4.8862124149695468e-01  -5.2249856471594880e-01  -5.5557023301960196e-01  -5.8778525229247303e-01  -6.1909394930983408e-01  -6.4944804833018355e-01  -6.7880074553294178e-01  -7.0710678118654746e-01  -7.3432250943568533e-01  -7.6040596560003093e-01  -7.8531693088074472e-01  -8.0901699437494734e-01  -8.3146961230254535e-01  -8.5264016435409218e-01  -8.7249600707279718e-01  -8.9100652418836779e-01  -9.0814317382508136e-01  -9.2387953251128663e-01  -9.3819133592248405e-01  -9.5105651629515353e-01  -9.6245523645364717e-01  -9.7236992039767656e-01  -9.8078528040323043e-01  -9.8768834059513766e-01  -9.9306845695492629e-01  -9.9691733373312796e-01  -9.9922903624072290e-01  -1.0000000000000000e+00  -9.9922903624072290e-01  -9.9691733373312807e-01  -9.9306845695492629e-01  -9.8768834059513777e-01  -9.8078528040323043e-01  -9.7236992039767667e-01  -9.6245523645364739e-01  -9.5105651629515353e-01  -9.3819133592248416e-01  -9.2387953251128685e-01  -9.0814317382508147e-01  -8.9100652418836812e-01  -8.7249600707279706e-01  -8.5264016435409229e-01  -8.3146961230254546e-01  -8.0901699437494756e-01  -7.8531693088074517e-01  -7.6040596560003071e-01  -7.3432250943568533e-01  -7.0710678118654768e-01  -6.7880074553294201e-01  -6.4944804833018399e-01  -6.1909394930983364e-01  -5.8778525229247325e-01  -5.5557023301960218e-01  -5.2249856471594935e-01  -4.8862124149695529e-01  -4.5399049973954692e-01  -4.1865973753742802e-01  -3.8268343236509034e-01  -3.4611705707749335e-01  -3.0901699437494756e-01  -2.7144044986507421e-01  -2.3344536385590514e-01  -1.9509032201612866e-01  -1.5643446504023106e-01  -1.1753739745783848e-01  -7.8459095727844680e-02  -3.9259815759069012e-02  -1.8369701987210297e-16  3.9259815759068645e-02  7.8459095727844319e-02  1.1753739745783812e-01  1.5643446504023067e-01  1.9509032201612833e-01  2.3344536385590478e-01  2.7144044986507387e-01  3.0901699437494723e-01  3.4611705707749302e-01  3.8268343236508995e-01  4.1865973753742769e-01  4.5399049973954664e-01  4.8862124149695496e-01  5.2249856471594902e-01  5.5557023301960184e-01  5.8778525229247292e-01  6.1909394930983330e-01  6.4944804833018388e-01  6.7880074553294145e-01  7.0710678118654735e-01  7.3432250943568556e-01  7.6040596560003049e-01  7.8531693088074517e-01  8.0901699437494734e-01  8.3146961230254524e-01  8.5264016435409185e-01  8.7249600707279684e-01  8.9100652418836779e-01  9.0814317382508125e-01  9.2387953251128652e-01  9.3819133592248394e-01  9.5105651629515353e-01  9.6245523645364728e-01  9.7236992039767667e-01  9.8078528040323032e-01  9.8768834059513766e-01  9.9306845695492618e-01  9.9691733373312796e-01  9.9922903624072290e-01  1.0000000000000000e+00  9.9922903624072290e-01  9.9845866105757086e-01  9.9614874084643246e-01  9.9230283145314957e-01  9.8692686300920618e-01  9.8002912487416238e-01  9.7162025286178111e-01  9.6171321284368616e-01  9.5032328075767580e-01  9.3746801905353272e-01  9.2316724961306440e-01  9.0744302318621850e-01  8.9031958539043565e-01  8.7182333932566269e-01  8.5198280486269817e-01  8.3082857466761051e-01  8.0839326703006698e-01  7.8471147556830090e-01  7.5981971588825359e-01  7.3375636927916099e-01  7.0656162353237939e-01  6.7827741097473582e-01  6.4894734381191110e-01  6.1861664688158569e-01  5.8733208792000957e-01  5.5514190544955000e-01  5.2209573439838519e-01  4.8824452956704073e-01  4.5364048705978183e-01  4.1833696380200214e-01  3.8238839526771379e-01  3.4585021154399193e-01  3.0877875186179737e-01  2.7123117772496674e-01  2.3326538477131586e-01  1.9493991350176337e-01  1.5631385901512035e-01  1.1744677988773256e-01  7.8398606338472510e-02  3.9229547820684239e-02  1.8357197223810696e-10  -3.9229547453822365e-02  -7.8398605972457069e-02  -1.1744677952312611e-01  -1.5631385865248285e-01  -1.9493991314165229e-01  -2.3326538441428463e-01  -2.7123117737156355e-01  -3.0877875151256406e-01  -3.4585021119946380e-01  -3.8238839492841797e-01  -4.1833696346845800e-01  -4.5364048673249902e-01  -4.8824452924651907e-01  -5.2209573408511134e-01  -5.5514190514400019e-01  -5.8733208762264766e-01  -6.1861664659286153e-01  -6.4894734353226025e-01  -6.7827741070457603e-01  -7.0656162327211536e-01  -7.3375636902917918e-01  -7.5981971564892525e-01  -7.8471147533997465e-01  -8.0839326681307444e-01  -8.3082857446226466e-01  -8.5198280466929299e-01  -8.7182333914446897e-01  -8.9031958522170307e-01  -9.0744302303017754e-01  -9.2316724946992657e-01  -9.3746801892349196e-01  -9.5032328064091764e-01  -9.6171321274040400e-01  -9.7162025277220965e-01  -9.8002912479868498e-01  -9.8692686294865284e-01  -9.9230283140984132e-01  -9.9614874082854243e-01  -9.9845866109118886e-01  -9.9922903046816358e-01  -9.9845866110572445e-01  -9.9614874085759098e-01  -9.9230283145335907e-01  -9.8692686300657206e-01  -9.8002912487091842e-01  -9.7162025285864506e-01  -9.6171321284090749e-01  -9.5032328075533734e-01  -9.3746801905164967e-01  -9.2316724961162500e-01  -9.0744302318519843e-01  -8.9031958538980638e-01  -8.7182333932539635e-01  -8.5198280486276567e-01  -8.3082857466798443e-01  -8.0839326703072456e-01  -7.8471147556921916e-01  -7.5981971588940933e-01  -7.3375636928053323e-01  -7.0656162353395102e-01  -6.7827741097649086e-01  -6.4894734381383401e-01  -6.1861664688366080e-01  -5.8733208792222402e-01  -5.5514190545189224e-01  -5.2209573440084356e-01  -4.8824452956960429e-01  -4.5364048706243965e-01  -4.1833696380474528e-01  -3.8238839527053375e-01  -3.4585021154688017e-01  -3.0877875186474624e-01  -2.7123117772796751e-01  -2.3326538477436159e-01  -1.9493991350484696e-01  -1.5631385901823525e-01  -1.1744677989087213e-01  -7.8398606341629248e-02  -3.9229547823852400e-02  -1.8674507624445253e-10  3.9229547450650992e-02  7.8398605969293433e-02  1.1744677951997747e-01  1.5631385864935507e-01  1.9493991313855233e-01  2.3326538441121930e-01  2.7123117736853974e-01  3.0877875150959044e-01  3.4585021119654685e-01  3.8238839492556648e-01  4.1833696346568017e-01  4.5364048672980412e-01  4.8824452924391654e-01  5.2209573408261212e-01  5.5514190514161477e-01  5.8733208762038724e-01  6.1861664659073934e-01  6.4894734353029038e-01  6.7827741070277237e-01  7.0656162327049254e-01  7.3375636902775765e-01  7.5981971564771988e-01  7.8471147533900754e-01  8.0839326681236578e-01  8.3082857446183844e-01  8.5198280466917431e-01  8.7182333914468479e-01  8.9031958522228249e-01  9.0744302303115043e-01  9.2316724947131945e-01  9.3746801892532972e-01  9.5032328064321292e-01  9.6171321274314048e-01  9.7162025277530872e-01  9.8002912480189597e-01  9.8692686295125831e-01  9.9230283140960995e-01  9.9614874081737037e-01  9.9845866104303038e-01  9.9922903624072290e-01  9.9691733373312796e-01  9.9614874084643223e-01  9.9384416457528812e-01  9.9000715264033134e-01  9.8464362143079287e-01  9.7776184112391695e-01  9.6937242292696568e-01  9.5948830271512986e-01  9.4812472108554069e-01  9.3529919985750209e-01  9.2103151505517356e-01  9.0534366641438846e-01  8.8825984346067977e-01  8.6980638821077749e-01  8.5001175455514399e-01  8.2890646438412618e-01  8.0652306052541889e-01  7.8289605656538819e-01  7.5806188363161853e-01  7.3205883421875151e-01  7.0492700314423995e-01  6.7670822572503986e-01  6.4744601327059126e-01  6.1718548599153278e-01  5.8597330342759724e-01  5.5385759250198885e-01  5.2088787331316067e-01  4.8711498277840715e-01  4.5259099624702415e-01  4.1736914720389279e-01  3.8150374518730473e-01  3.4505009204759135e-01  3.0806439667567909e-01  2.7060368833305504e-01  2.3272572871677596e-01  1.9448892289511882e-01  1.5595222925120081e-01  1.1717506857342477e-01  7.8217232432930911e-02  3.9138790989326634e-02  3.6685508128699927e-10  -3.9138790256180341e-02  -7.8217231701476084e-02  -1.1717506784478549e-01  -1.5595222852649690e-01  -1.9448892217546351e-01  -2.3272572800327571e-01  -2.7060368762680553e-01  -3.0806439597776292e-01  -3.4505009135907766e-01  -3.8150374450924829e-01  -4.1736914653733159e-01  -4.5259099559297711e-01  -4.8711498213787080e-01  -5.2088787268710923e-01  -5.5385759189137418e-01  -5.8597330283334736e-01  -6.1718548541454732e-01  -6.4744601271173774e-01  -6.7670822518515372e-01  -7.0492700262412955e-01  -7.3205883371919278e-01  -7.5806188315334810e-01  -7.8289605610910862e-01  -8.0652306009179120e-01  -8.2890646397377510e-01  -8.5001175416865704e-01  -8.6980638784869557e-01  -8.8825984312350115e-01  -9.0534366610257289e-01  -9.2103151476913803e-01  -9.3529919959763175e-01  -9.4812472085218946e-01  -9.5948830250864925e-01  -9.6937242274774582e-01  -9.7776184097248375e-01  -9.8464362130804217e-01  -9.9000715254794147e-01  -9.9384416451576774e-01  -9.9614874081717608e-01  -9.9691732796255006e-01  -9.9614874084622340e-01  -9.9384416457382030e-01  -9.9000715263491068e-01  -9.8464362142379258e-01  -9.7776184111683928e-01  -9.6937242292048209e-01  -9.5948830270950347e-01  -9.4812472108085133e-01  -9.3529919985374910e-01  -9.2103151505231640e-01  -9.0534366641237407e-01  -8.8825984345944842e-01  -8.6980638821027123e-01  -8.5001175455530276e-01  -8.2890646438489635e-01  -8.0652306052675338e-01  -7.8289605656724226e-01  -7.5806188363394633e-01  -7.3205883422151308e-01  -7.0492700314739853e-01  -6.7670822572856382e-01  -6.4744601327445184e-01  -6.1718548599569667e-01  -5.8597330343203791e-01  -5.5385759250668354e-01  -5.2088787331808717e-01  -4.8711498278354398e-01  -4.5259099625234978e-01  -4.1736914720938834e-01  -3.8150374519295221e-01  -3.4505009205337533e-01  -3.0806439668158381e-01  -2.7060368833906401e-01  -2.3272572872287431e-01  -1.9448892290129272e-01  -1.5595222925743707e-01  -1.1717506857971008e-01  -7.8217232439251105e-02  -3.9138790995669359e-02  -3.7320762766503031e-10  3.9138790249831024e-02  7.8217231695142581e-02  1.1717506783848158e-01  1.5595222852023471e-01  1.9448892216925698e-01  2.3272572799713809e-01  2.7060368762075143e-01  3.0806439597180779e-01  3.4505009135323617e-01  3.8150374450353702e-01  4.1736914653176732e-01  4.5259099558757804e-01  4.8711498213265686e-01  5.2088787268210013e-01  5.5385759188659189e-01  5.8597330282881388e-01  6.1718548541028884e-01  6.4744601270778257e-01  6.7670822518153018e-01  7.0492700262086905e-01  7.3205883371632885e-01  7.5806188315091927e-01  7.8289605610715218e-01  8.0652306009035091e-01  8.2890646397289791e-01  8.5001175416839303e-01  8.6980638784909936e-01  8.8825984312463080e-01  9.0534366610448858e-01  9.2103151477189960e-01  9.3529919960129260e-01  9.4812472085679045e-01  9.5948830251419381e-01  9.6937242275415314e-01  9.7776184097949426e-01  9.8464362131498484e-01  9.9000715255331695e-01  9.9384416451720514e-01  9.9614874081736959e-01  9.9691733373312796e-01  9.9306845695492629e-01  9.9230283145314935e-01  9.9000715264032957e-01  9.8618495455921118e-01  9.8084213075902682e-01  9.7398691948593674e-01  9.6562989097882157e-01  9.5578393117001736e-01  9.4446422181598577e-01  9.3168821708812499e-01  9.1747561665972788e-01  9.0184833533050823e-01  8.8483046923558750e-01  8.6644825869100162e-01  8.4673004773303251e-01  8.2570624041376450e-01  8.0340925392023999e-01  7.7987346858951012e-01  7.5513517489663906e-01  7.2923251749742857e-01  7.0220543641212052e-01  6.7409560544077707e-01  6.4494636790531412e-01  6.1480266981722809e-01  5.8371099057410836e-01  5.5171927129177190e-01  5.1887684088254182e-01  4.8523433999364035e-01  4.5084364292298007e-01  4.1575777763275318e-01  3.8003084398415987e-01  3.4371793031934400e-01  3.0687502851916187e-01  2.6955894766776228e-01  2.3182722645709247e-01  1.9373804446640727e-01  1.5535013245357665e-01  1.1672268179651089e-01  7.7915253224349487e-02  3.8987684979130660e-02  5.4956108849661837e-10  -3.8987683880853330e-02  -7.7915252128606102e-02  -1.1672268070498569e-01  -1.5535013136794731e-01  -1.9373804338834219e-01  -2.3182722538824796e-01  -2.6955894660977958e-01  -3.0687502747366391e-01  -3.4371792928793332e-01  -3.8003084296841605e-01  -4.1575777663423130e-01  -4.5084364194320586e-01  -4.8523433903410784e-01  -5.1887683994471046e-01  -5.5171927037706747e-01  -5.8371098968392121e-01  -6.1480266895290470e-01  -6.4494636706815478e-01  -6.7409560463203710e-01  -7.0220543563300841e-01  -7.2923251674910605e-01  -7.5513517418021192e-01  -7.7987346790602818e-01  -8.0340925327069690e-01  -8.2570623979909552e-01  -8.4673004715411448e-01  -8.6644825814864623e-01  -8.8483046873054294e-01  -9.0184833486345606e-01  -9.1747561623129015e-01  -9.3168821669886448e-01  -9.4446422146640574e-01  -9.5578393086058822e-01  -9.6562989070998984e-01  -9.7398691925817671e-01  -9.8084213057285718e-01  -9.8618495441505627e-01  -9.9000715253766769e-01  -9.9230283138822417e-01  -9.9306845119633169e-01  -9.9230283143174214e-01  -9.9000715262463845e-01  -9.8618495454534461e-01  -9.8084213074626247e-01  -9.7398691947443272e-01  -9.6562989096876517e-01  -9.5578393116148397e-01  -9.4446422180896084e-01  -9.3168821708254967e-01  -9.1747561665551347e-01  -9.0184833532756314e-01  -8.8483046923381847e-01  -8.6644825869031417e-01  -8.4673004773333793e-01  -8.2570624041498530e-01  -8.0340925392230311e-01  -7.7987346859234541e-01  -7.5513517490018267e-01  -7.2923251750161944e-01  -7.0220543641690503e-01  -6.7409560544610680e-01  -6.4494636791114290e-01  -6.1480266982351128e-01  -5.8371099058080500e-01  -5.5171927129884690e-01  -5.1887684088996189e-01  -4.8523434000137389e-01  -4.5084364293099544e-01  -4.1575777764102106e-01  -3.8003084399265585e-01  -3.4371793032804182e-01  -3.0687502852803933e-01  -2.6955894767679561e-01  -2.3182722646625939e-01  -1.9373804447568699e-01  -1.5535013246294868e-01  -1.1672268180595564e-01  -7.7915253233846474e-02  -3.8987684988661141e-02  -5.5910597908487502e-10  3.8987683871313399e-02  7.7915252119089992e-02  1.1672268069551366e-01  1.5535013135853776e-01  1.9373804337901532e-01  2.3182722537902475e-01  2.6955894660068147e-01  3.0687502746471340e-01  3.4371792927915229e-01  3.8003084295982903e-01  4.1575777662586322e-01  4.5084364193508503e-01  4.8523433902626228e-01  5.1887683993717049e-01  5.5171927036986590e-01  5.8371098967709156e-01  6.1480266894648516e-01  6.4494636706218733e-01  6.7409560462656415e-01  7.0220543562807658e-01  7.2923251674476486e-01  7.5513517417651710e-01  7.7987346790304057e-01  8.0340925326848012e-01  8.2570623979771829e-01  8.4673004715365274e-01  8.6644825814918336e-01  8.8483046873216631e-01  9.0184833486625837e-01  9.1747561623536644e-01  9.3168821670430924e-01  9.4446422147330567e-01  9.5578393086900504e-01  9.6562989071993977e-01  9.7398691926958680e-01  9.8084213058554259e-01  9.8618495442885945e-01  9.9000715255331706e-01  9.9230283140960895e-01  9.9306845695492629e-01  9.8768834059513777e-01  9.8692686300920429e-01  9.8464362143079054e-01  9.8084213075902604e-01  9.7552825261581011e-01  9.6871018061533187e-01  9.6039842773013862e-01  9.5060581008064482e-01  9.3934742717346331e-01  9.2664063861901169e-01  9.1250503736423105e-01  8.9696241948167943e-01  8.8003675056157049e-01  8.6175412875857260e-01  8.4214274455034421e-01  8.2123283726986074e-01  7.9905664847855640e-01  7.7564837225217864e-01  7.5104410245599207e-01  7.2528177709066211e-01  6.9840111979460384e-01  6.7044357859301018e-01  6.4145226198800365e-01  6.1147187248845503e-01  5.8054863768194398e-01  5.4873023895517414e-01  5.1606573797273458e-01  4.8260550102756589e-01  4.4840112137978949e-01  4.1350533970363623e-01  3.7797196276514733e-01  3.4185578045605081e-01  3.0521248131171042e-01  2.6809856664344678e-01  2.3057126341760509e-01  1.9268843601572402e-01  1.5450849701185349e-01  1.1609031710459834e-01  7.7493134342769263e-02  3.8776462784603741e-02  7.3140259811588748e-10  -3.8776461322923159e-02  -7.7493132884461358e-02  -1.1609031565190517e-01  -1.5450849556700802e-01  -1.9268843458094700e-01  -2.3057126199510111e-01  -2.6809856523540027e-01  -3.0521247992028178e-01  -3.4185577908337211e-01  -3.7797196141332262e-01  -4.1350533837473408e-01  -4.4840112007584193e-01  -4.8260549975056172e-01  -5.1606573672461664e-01  -5.4873023773784113e-01  -5.8054863649724331e-01  -6.1147187133817960e-01  -6.4145226087388585e-01  -6.7044357751671990e-01  -6.9840111875775257e-01  -7.2528177609479594e-01  -7.5104410150257972e-01  -7.7564837134262132e-01  -7.9905664761417627e-01  -8.2123283645190293e-01  -8.4214274377997511e-01  -8.6175412803687157e-01  -8.8003674988953140e-01  -8.9696241886020711e-01  -9.1250503679414552e-01  -9.2664063810104491e-01  -9.3934742670825433e-01  -9.5060580966875141e-01  -9.6039842737203240e-01  -9.6871018031138434e-01  -9.7552825236622265e-01  -9.8084213056361980e-01  -9.8464362128855587e-01  -9.8692686291786735e-01  -9.8768833485845720e-01  -9.8692686297578669e-01  -9.8464362140430661e-01  -9.8084213073702486e-01  -9.7552825259701448e-01  -9.6871018059921010e-01  -9.6039842771644834e-01  -9.5060581006922762e-01  -9.3934742716417341e-01  -9.2664063861170498e-01  -9.1250503735876010e-01  -8.9696241947790523e-01  -8.8003675055935959e-01  -8.6175412875779833e-01  -8.4214274455088756e-01  -8.2123283727161478e-01  -7.9905664848142355e-01  -7.7564837225606598e-01  -7.5104410246081510e-01  -7.2528177709634256e-01  -6.9840111980106867e-01  -6.7044357860019421e-01  -6.4145226199584826e-01  -6.1147187249690016e-01  -5.8054863769093701e-01  -5.4873023896466755e-01  -5.1606573798268363e-01  -4.8260550103792932e-01  -4.4840112139052513e-01  -4.1350533971470638e-01  -3.7797196277651807e-01  -3.4185578046768955e-01  -3.0521248132358614e-01  -2.6809856665552761e-01  -2.3057126342986284e-01  -1.9268843602813090e-01  -1.5450849702438224e-01  -1.1609031711722309e-01  -7.7493134355462859e-02  -3.8776462797341406e-02  -7.4415905391532682e-10  3.8776461310173364e-02  7.7493132871743337e-02  1.1609031563924535e-01  1.5450849555443158e-01  1.9268843456848073e-01  2.3057126198277175e-01  2.6809856522323633e-01  3.0521247990831268e-01  3.4185577907162801e-01  3.7797196140183509e-01  4.1350533836353653e-01  4.4840112006497090e-01  4.8260549974005484e-01  5.1606573671451406e-01  5.4873023772818574e-01  5.8054863648808086e-01  6.1147187132956027e-01  6.4145226086586260e-01  6.7044357750935102e-01  6.9840111875109967e-01  7.2528177608892519e-01  7.5104410149756395e-01  7.7564837133853881e-01  7.9905664761111295e-01  8.2123283644995182e-01  8.4214274377923615e-01  8.6175412803745610e-01  8.8003674989155678e-01  8.9696241886380079e-01  9.1250503679944250e-01  9.2664063810818620e-01  9.3934742671738813e-01  9.5060580968002406e-01  9.6039842738559222e-01  9.6871018032739187e-01  9.7552825238491936e-01  9.8084213058554359e-01  9.8464362131498562e-01  9.8692686295125631e-01  9.8768834059513777e-01  9.8078528040323043e-01  9.8002912487415983e-01  9.7776184112391307e-01  9.7398691948593441e-01  9.6871018061533098e-01  9.6193976086053945e-01  9.5368609971781582e-01  9.4396192373425647e-0