<?xml version="1.0"?>
<VTKFile type="UnstructuredGrid"  version="0.1"  >
<UnstructuredGrid>
<Piece  NumberOfPoints="25921" NumberOfCells="51200">
<Points>
<DataArray  type="Float64"  NumberOfComponents="3"  format="ascii">0 0 0  0.00625 0 0  0.0125 0 0  0.01875 0 0  0.025 0 0  0.03125 0 0  0.0375 0 0  0.04375 0 0  0.05 0 0  0.05625 0 0  0.0625 0 0  0.06875000000000001 0 0  0.075 0 0  0.08125 0 0  0.08749999999999999 0 0  0.09375 0 0  0.1 0 0  0.10625 0 0  0.1125 0 0  0.11875 0 0  0.125 0 0  0.13125 0 0  0.1375 0 0  0.14375 0 0  0.15 0 0  0.15625 0 0  0.1625 0 0  0.16875 0 0  0.175 0 0  0.18125 0 0  0.1875 0 0  0.19375 0 0  0.2 0 0  0.20625 0 0  0.2125 0 0  0.21875 0 0  0.225 0 0  0.23125 0 0  0.2375 0 0  0.24375 0 0  0.25 0 0  0.25625 0 0  0.2625 0 0  0.26875 0 0  0.275 0 0  0.28125 0 0  0.2875 0 0  0.29375 0 0  0.3 0 0  0.30625 0 0  0.3125 0 0  0.31875 0 0  0.325 0 0  0.33125 0 0  0.3375 0 0  0.34375 0 0  0.35 0 0  0.35625 0 0  0.3625 0 0  0.36875 0 0  0.375 0 0  0.38125 0 0  0.3875 0 0  0.39375 0 0  0.4 0 0  0.40625 0 0  0.4125 0 0  0.41875 0 0  0.425 0 0  0.43125 0 0  0.4375 0 0  0.44375 0 0  0.45 0 0  0.45625 0 0  0.4625 0 0  0.46875 0 0  0.475 0 0  0.48125 0 0  0.4875 0 0  0.49375 0 0  0.5 0 0  0.50625 0 0  0.5125 0 0  0.51875 0 0  0.525 0 0  0.53125 0 0  0.5375 0 0  0.54375 0 0  0.55 0 0  0.55625 0 0  0.5625 0 0  0.56875 0 0  0.575 0 0  0.58125 0 0  0.5875 0 0  0.59375 0 0  0.6 0 0  0.60625 0 0  0.6125 0 0  0.61875 0 0  0.625 0 0  0.63125 0 0  0.6375 0 0  0.64375 0 0  0.65 0 0  0.65625 0 0  0.6625 0 0  0.66875 0 0  0.675 0 0  0.68125 0 0  0.6875 0 0  0.69375 0 0  0.7 0 0  0.70625 0 0  0.7125 0 0  0.71875 0 0  0.725 0 0  0.73125 0 0  0.7375 0 0  0.74375 0 0  0.75 0 0  0.75625 0 0  0.7625 0 0  0.76875 0 0  0.775 0 0  0.78125 0 0  0.7875 0 0  0.79375 0 0  0.8 0 0  0.80625 0 0  0.8125 0 0  0.81875 0 0  0.825 0 0  0.83125 0 0  0.8375 0 0  0.84375 0 0  0.85 0 0  0.85625 0 0  0.8625 0 0  0.86875 0 0  0.875 0 0  0.88125 0 0  0.8875 0 0  0.89375 0 0  0.9 0 0  0.90625 0 0  0.9125 0 0  0.91875 0 0  0.925 0 0  0.93125 0 0  0.9375 0 0  0.94375 0 0  0.95 0 0  0.95625 0 0  0.9625 0 0  0.96875 0 0  0.975 0 0  0.98125 0 0  0.9875 0 0  0.99375 0 0  1 0 0  0 0.00625 0  0.00625 0.00625 0  0.0125 0.00625 0  0.01875 0.00625 0  0.025 0.00625 0  0.03125 0.00625 0  0.0375 0.00625 0  0.04375 0.00625 0  0.05 0.00625 0  0.05625 0.00625 0  0.0625 0.00625 0  0.06875000000000001 0.00625 0  0.075 0.00625 0  0.08125 0.00625 0  0.08749999999999999 0.00625 0  0.09375 0.00625 0  0.1 0.00625 0  0.10625 0.00625 0  0.1125 0.00625 0  0.11875 0.00625 0  0.125 0.00625 0  0.13125 0.00625 0  0.1375 0.00625 0  0.14375 0.00625 0  0.15 0.00625 0  0.15625 0.00625 0  0.1625 0.00625 0  0.16875 0.00625 0  0.175 0.00625 0  0.18125 0.00625 0  0.1875 0.00625 0  0.19375 0.00625 0  0.2 0.00625 0  0.20625 0.00625 0  0.2125 0.00625 0  0.21875 0.00625 0  0.225 0.00625 0  0.23125 0.00625 0  0.2375 0.00625 0  0.24375 0.00625 0  0.25 0.00625 0  0.25625 0.00625 0  0.2625 0.00625 0  0.26875 0.00625 0  0.275 0.00625 0  0.28125 0.00625 0  0.2875 0.00625 0  0.29375 0.00625 0  0.3 0.00625 0  0.30625 0.00625 0  0.3125 0.00625 0  0.31875 0.00625 0  0.325 0.00625 0  0.33125 0.00625 0  0.3375 0.00625 0  0.34375 0.00625 0  0.35 0.00625 0  0.35625 0.00625 0  0.3625 0.00625 0  0.36875 0.00625 0  0.375 0.00625 0  0.38125 0.00625 0  0.3875 0.00625 0  0.39375 0.00625 0  0.4 0.00625 0  0.40625 0.00625 0  0.4125 0.00625 0  0.41875 0.00625 0  0.425 0.00625 0  0.43125 0.00625 0  0.4375 0.00625 0  0.44375 0.00625 0  0.45 0.00625 0  0.45625 0.00625 0  0.4625 0.00625 0  0.46875 0.00625 0  0.475 0.00625 0  0.48125 0.00625 0  0.4875 0.00625 0  0.49375 0.00625 0  0.5 0.00625 0  0.50625 0.00625 0  0.5125 0.00625 0  0.51875 0.00625 0  0.525 0.00625 0  0.53125 0.00625 0  0.5375 0.00625 0  0.54375 0.00625 0  0.55 0.00625 0  0.55625 0.00625 0  0.5625 0.00625 0  0.56875 0.00625 0  0.575 0.00625 0  0.58125 0.00625 0  0.5875 0.00625 0  0.59375 0.00625 0  0.6 0.00625 0  0.60625 0.00625 0  0.6125 0.00625 0  0.61875 0.00625 0  0.625 0.00625 0  0.63125 0.00625 0  0.6375 0.00625 0  0.64375 0.00625 0  0.65 0.00625 0  0.65625 0.00625 0  0.6625 0.00625 0  0.66875 0.00625 0  0.675 0.00625 0  0.68125 0.00625 0  0.6875 0.00625 0  0.69375 0.00625 0  0.7 0.00625 0  0.70625 0.00625 0  0.7125 0.00625 0  0.71875 0.00625 0  0.725 0.00625 0  0.73125 0.00625 0  0.7375 0.00625 0  0.74375 0.00625 0  0.75 0.00625 0  0.75625 0.00625 0  0.7625 0.00625 0  0.76875 0.00625 0  0.775 0.00625 0  0.78125 0.00625 0  0.7875 0.00625 0  0.79375 0.00625 0  0.8 0.00625 0  0.80625 0.00625 0  0.8125 0.00625 0  0.81875 0.00625 0  0.825 0.00625 0  0.83125 0.00625 0  0.8375 0.00625 0  0.84375 0.00625 0  0.85 0.00625 0  0.85625 0.00625 0  0.8625 0.00625 0  0.86875 0.00625 0  0.875 0.00625 0  0.88125 0.00625 0  0.8875 0.00625 0  0.89375 0.00625 0  0.9 0.00625 0  0.90625 0.00625 0  0.9125 0.00625 0  0.91875 0.00625 0  0.925 0.00625 0  0.93125 0.00625 0  0.9375 0.00625 0  0.94375 0.00625 0  0.95 0.00625 0  0.95625 0.00625 0  0.9625 0.00625 0  0.96875 0.00625 0  0.975 0.00625 0  0.98125 0.00625 0  0.9875 0.00625 0  0.99375 0.00625 0  1 0.00625 0  0 0.0125 0  0.00625 0.0125 0  0.0125 0.0125 0  0.01875 0.0125 0  0.025 0.0125 0  0.03125 0.0125 0  0.0375 0.0125 0  0.04375 0.0125 0  0.05 0.0125 0  0.05625 0.0125 0  0.0625 0.0125 0  0.06875000000000001 0.0125 0  0.075 0.0125 0  0.08125 0.0125 0  0.08749999999999999 0.0125 0  0.09375 0.0125 0  0.1 0.0125 0  0.10625 0.0125 0  0.1125 0.0125 0  0.11875 0.0125 0  0.125 0.0125 0  0.13125 0.0125 0  0.1375 0.0125 0  0.14375 0.0125 0  0.15 0.0125 0  0.15625 0.0125 0  0.1625 0.0125 0  0.16875 0.0125 0  0.175 0.0125 0  0.18125 0.0125 0  0.1875 0.0125 0  0.19375 0.0125 0  0.2 0.0125 0  0.20625 0.0125 0  0.2125 0.0125 0  0.21875 0.0125 0  0.225 0.0125 0  0.23125 0.0125 0  0.2375 0.0125 0  0.24375 0.0125 0  0.25 0.0125 0  0.25625 0.0125 0  0.2625 0.0125 0  0.26875 0.0125 0  0.275 0.0125 0  0.28125 0.0125 0  0.2875 0.0125 0  0.29375 0.0125 0  0.3 0.0125 0  0.30625 0.0125 0  0.3125 0.0125 0  0.31875 0.0125 0  0.325 0.0125 0  0.33125 0.0125 0  0.3375 0.0125 0  0.34375 0.0125 0  0.35 0.0125 0  0.35625 0.0125 0  0.3625 0.0125 0  0.36875 0.0125 0  0.375 0.0125 0  0.38125 0.0125 0  0.3875 0.0125 0  0.39375 0.0125 0  0.4 0.0125 0  0.40625 0.0125 0  0.4125 0.0125 0  0.41875 0.0125 0  0.425 0.0125 0  0.43125 0.0125 0  0.4375 0.0125 0  0.44375 0.0125 0  0.45 0.0125 0  0.45625 0.0125 0  0.4625 0.0125 0  0.46875 0.0125 0  0.475 0.0125 0  0.48125 0.0125 0  0.4875 0.0125 0  0.49375 0.0125 0  0.5 0.0125 0  0.50625 0.0125 0  0.5125 0.0125 0  0.51875 0.0125 0  0.525 0.0125 0  0.53125 0.0125 0  0.5375 0.0125 0  0.54375 0.0125 0  0.55 0.0125 0  0.55625 0.0125 0  0.5625 0.0125 0  0.56875 0.0125 0  0.575 0.0125 0  0.58125 0.0125 0  0.5875 0.0125 0  0.59375 0.0125 0  0.6 0.0125 0  0.60625 0.0125 0  0.6125 0.0125 0  0.61875 0.0125 0  0.625 0.0125 0  0.63125 0.0125 0  0.6375 0.0125 0  0.64375 0.0125 0  0.65 0.0125 0  0.65625 0.0125 0  0.6625 0.0125 0  0.66875 0.0125 0  0.675 0.0125 0  0.68125 0.0125 0  0.6875 0.0125 0  0.69375 0.0125 0  0.7 0.0125 0  0.70625 0.0125 0  0.7125 0.0125 0  0.71875 0.0125 0  0.725 0.0125 0  0.73125 0.0125 0  0.7375 0.0125 0  0.74375 0.0125 0  0.75 0.0125 0  0.75625 0.0125 0  0.7625 0.0125 0  0.76875 0.0125 0  0.775 0.0125 0  0.78125 0.0125 0  0.7875 0.0125 0  0.79375 0.0125 0  0.8 0.0125 0  0.80625 0.0125 0  0.8125 0.0125 0  0.81875 0.0125 0  0.825 0.0125 0  0.83125 0.0125 0  0.8375 0.0125 0  0.84375 0.0125 0  0.85 0.0125 0  0.85625 0.0125 0  0.8625 0.0125 0  0.86875 0.0125 0  0.875 0.0125 0  0.88125 0.0125 0  0.8875 0.0125 0  0.89375 0.0125 0  0.9 0.0125 0  0.90625 0.0125 0  0.9125 0.0125 0  0.91875 0.0125 0  0.925 0.0125 0  0.93125 0.0125 0  0.9375 0.0125 0  0.94375 0.0125 0  0.95 0.0125 0  0.95625 0.0125 0  0.9625 0.0125 0  0.96875 0.0125 0  0.975 0.0125 0  0.98125 0.0125 0  0.9875 0.0125 0  0.99375 0.0125 0  1 0.0125 0  0 0.01875 0  0.00625 0.01875 0  0.0125 0.01875 0  0.01875 0.01875 0  0.025 0.01875 0  0.03125 0.01875 0  0.0375 0.01875 0  0.04375 0.01875 0  0.05 0.01875 0  0.05625 0.01875 0  0.0625 0.01875 0  0.06875000000000001 0.01875 0  0.075 0.01875 0  0.08125 0.01875 0  0.08749999999999999 0.01875 0  0.09375 0.01875 0  0.1 0.01875 0  0.10625 0.01875 0  0.1125 0.01875 0  0.11875 0.01875 0  0.125 0.01875 0  0.13125 0.01875 0  0.1375 0.01875 0  0.14375 0.01875 0  0.15 0.01875 0  0.15625 0.01875 0  0.1625 0.01875 0  0.16875 0.01875 0  0.175 0.01875 0  0.18125 0.01875 0  0.1875 0.01875 0  0.19375 0.01875 0  0.2 0.01875 0  0.20625 0.01875 0  0.2125 0.01875 0  0.21875 0.01875 0  0.225 0.01875 0  0.23125 0.01875 0  0.2375 0.01875 0  0.24375 0.01875 0  0.25 0.01875 0  0.25625 0.01875 0  0.2625 0.01875 0  0.26875 0.01875 0  0.275 0.01875 0  0.28125 0.01875 0  0.2875 0.01875 0  0.29375 0.01875 0  0.3 0.01875 0  0.30625 0.01875 0  0.3125 0.01875 0  0.31875 0.01875 0  0.325 0.01875 0  0.33125 0.01875 0  0.3375 0.01875 0  0.34375 0.01875 0  0.35 0.01875 0  0.35625 0.01875 0  0.3625 0.01875 0  0.36875 0.01875 0  0.375 0.01875 0  0.38125 0.01875 0  0.3875 0.01875 0  0.39375 0.01875 0  0.4 0.01875 0  0.40625 0.01875 0  0.4125 0.01875 0  0.41875 0.01875 0  0.425 0.01875 0  0.43125 0.01875 0  0.4375 0.01875 0  0.44375 0.01875 0  0.45 0.01875 0  0.45625 0.01875 0  0.4625 0.01875 0  0.46875 0.01875 0  0.475 0.01875 0  0.48125 0.01875 0  0.4875 0.01875 0  0.49375 0.01875 0  0.5 0.01875 0  0.50625 0.01875 0  0.5125 0.01875 0  0.51875 0.01875 0  0.525 0.01875 0  0.53125 0.01875 0  0.5375 0.01875 0  0.54375 0.01875 0  0.55 0.01875 0  0.55625 0.01875 0  0.5625 0.01875 0  0.56875 0.01875 0  0.575 0.01875 0  0.58125 0.01875 0  0.5875 0.01875 0  0.59375 0.01875 0  0.6 0.01875 0  0.60625 0.01875 0  0.6125 0.01875 0  0.61875 0.01875 0  0.625 0.01875 0  0.63125 0.01875 0  0.6375 0.01875 0  0.64375 0.01875 0  0.65 0.01875 0  0.65625 0.01875 0  0.6625 0.01875 0  0.66875 0.01875 0  0.675 0.01875 0  0.68125 0.01875 0  0.6875 0.01875 0  0.69375 0.01875 0  0.7 0.01875 0  0.70625 0.01875 0  0.7125 0.01875 0  0.71875 0.01875 0  0.725 0.01
[...]
<PointData  Scalars="f_19856"> 
<DataArray  type="Float64"  Name="f_19856"  format="ascii">1.0000000000000000e+00  9.9922903624072290e-01  9.9691733373312807e-01  9.9306845695492640e-01  9.8768834059513777e-01  9.8078528040323032e-01  9.7236992039767645e-01  9.6245523645364728e-01  9.5105651629515342e-01  9.3819133592248416e-01  9.2387953251128685e-01  9.0814317382508125e-01  8.9100652418836790e-01  8.7249600707279718e-01  8.5264016435409218e-01  8.3146961230254524e-01  8.0901699437494745e-01  7.8531693088074506e-01  7.6040596560003082e-01  7.3432250943568556e-01  7.0710678118654757e-01  6.7880074553294178e-01  6.4944804833018355e-01  6.1909394930983408e-01  5.8778525229247314e-01  5.5557023301960229e-01  5.2249856471594891e-01  4.8862124149695496e-01  4.5399049973954680e-01  4.1865973753742813e-01  3.8268343236508989e-01  3.4611705707749302e-01  3.0901699437494745e-01  2.7144044986507432e-01  2.3344536385590550e-01  1.9509032201612833e-01  1.5643446504023092e-01  1.1753739745783770e-01  7.8459095727844999e-02  3.9259815759068666e-02  6.1232339957367660e-17  -3.9259815759068326e-02  -7.8459095727844874e-02  -1.1753739745783758e-01  -1.5643446504023104e-01  -1.9509032201612819e-01  -2.3344536385590511e-01  -2.7144044986507421e-01  -3.0901699437494734e-01  -3.4611705707749313e-01  -3.8268343236508973e-01  -4.1865973753742780e-01  -4.5399049973954669e-01  -4.8862124149695468e-01  -5.2249856471594880e-01  -5.5557023301960196e-01  -5.8778525229247303e-01  -6.1909394930983408e-01  -6.4944804833018355e-01  -6.7880074553294178e-01  -7.0710678118654746e-01  -7.3432250943568533e-01  -7.6040596560003093e-01  -7.8531693088074472e-01  -8.0901699437494723e-01  -8.3146961230254535e-01  -8.5264016435409218e-01  -8.7249600707279718e-01  -8.9100652418836779e-01  -9.0814317382508136e-01  -9.2387953251128663e-01  -9.3819133592248405e-01  -9.5105651629515353e-01  -9.6245523645364717e-01  -9.7236992039767656e-01  -9.8078528040323054e-01  -9.8768834059513766e-01  -9.9306845695492618e-01  -9.9691733373312785e-01  -9.9922903624072290e-01  -1.0000000000000000e+00  -9.9922903624072290e-01  -9.9691733373312807e-01  -9.9306845695492629e-01  -9.8768834059513777e-01  -9.8078528040323054e-01  -9.7236992039767667e-01  -9.6245523645364739e-01  -9.5105651629515353e-01  -9.3819133592248427e-01  -9.2387953251128685e-01  -9.0814317382508147e-01  -8.9100652418836812e-01  -8.7249600707279706e-01  -8.5264016435409229e-01  -8.3146961230254546e-01  -8.0901699437494756e-01  -7.8531693088074506e-01  -7.6040596560003071e-01  -7.3432250943568544e-01  -7.0710678118654768e-01  -6.7880074553294201e-01  -6.4944804833018410e-01  -6.1909394930983364e-01  -5.8778525229247325e-01  -5.5557023301960218e-01  -5.2249856471594935e-01  -4.8862124149695529e-01  -4.5399049973954692e-01  -4.1865973753742797e-01  -3.8268343236509034e-01  -3.4611705707749335e-01  -3.0901699437494756e-01  -2.7144044986507421e-01  -2.3344536385590514e-01  -1.9509032201612869e-01  -1.5643446504023104e-01  -1.1753739745783848e-01  -7.8459095727844680e-02  -3.9259815759069012e-02  -1.8369701987210297e-16  3.9259815759068645e-02  7.8459095727844319e-02  1.1753739745783810e-01  1.5643446504023067e-01  1.9509032201612830e-01  2.3344536385590478e-01  2.7144044986507387e-01  3.0901699437494723e-01  3.4611705707749302e-01  3.8268343236509000e-01  4.1865973753742763e-01  4.5399049973954664e-01  4.8862124149695496e-01  5.2249856471594902e-01  5.5557023301960184e-01  5.8778525229247292e-01  6.1909394930983330e-01  6.4944804833018388e-01  6.7880074553294145e-01  7.0710678118654735e-01  7.3432250943568556e-01  7.6040596560003060e-01  7.8531693088074517e-01  8.0901699437494723e-01  8.3146961230254512e-01  8.5264016435409185e-01  8.7249600707279684e-01  8.9100652418836790e-01  9.0814317382508125e-01  9.2387953251128652e-01  9.3819133592248394e-01  9.5105651629515342e-01  9.6245523645364728e-01  9.7236992039767667e-01  9.8078528040323032e-01  9.8768834059513766e-01  9.9306845695492629e-01  9.9691733373312796e-01  9.9922903624072290e-01  1.0000000000000000e+00  9.9922903624072290e-01  9.9845868865087639e-01  9.9614876747969594e-01  9.9230285773668125e-01  9.8692688905260195e-01  9.8002915068014518e-01  9.7162027840531573e-01  9.6171323809117537e-01  9.5032330567263801e-01  9.3746804359860236e-01  9.2316727375080920e-01  9.0744304687953259e-01  8.9031960860274706e-01  8.7182336202106958e-01  8.5198282700605876e-01  8.3082859622462291e-01  8.0839328796733390e-01  7.8471149585338507e-01  7.5981973548972903e-01  7.3375638816666544e-01  7.0656164167666446e-01  6.7827742834770854e-01  6.4894736038667766e-01  6.1861666263249038e-01  5.8733210282267867e-01  5.5514191948092573e-01  5.2209574753676191e-01  4.8824454179209581e-01  4.5364049835260667e-01  4.1833697414513332e-01  3.8238840464515722e-01  3.4585021994124854e-01  3.0877875926588388e-01  2.7123118412443575e-01  2.3326539015627362e-01  1.9493991786388376e-01  1.5631386234765826e-01  1.1744678218553406e-01  7.8398607597981493e-02  3.9229548039948679e-02  -6.3775359392380916e-10  -3.9229549314476447e-02  -7.8398608869573491e-02  -1.1744678345223826e-01  -1.5631386360753155e-01  -1.9493991911499381e-01  -2.3326539139670374e-01  -2.7123118535228802e-01  -3.0877876047928032e-01  -3.4585022113833758e-01  -3.8238840582411487e-01  -4.1833697530416619e-01  -4.5364049948995705e-01  -4.8824454290604213e-01  -5.2209574862562436e-01  -5.5514192054306799e-01  -5.8733210385650947e-01  -6.1861666363647094e-01  -6.4894736135932107e-01  -6.7827742928758317e-01  -7.0656164258239706e-01  -7.3375638903694262e-01  -7.5981973632330135e-01  -7.8471149664906559e-01  -8.0839328872400384e-01  -8.3082859694122790e-01  -8.5198282768160760e-01  -8.7182336265463312e-01  -8.9031960919344455e-01  -9.0744304742651527e-01  -9.2316727425321898e-01  -9.3746804405550543e-01  -9.5032330608287829e-01  -9.6171323845306034e-01  -9.7162027871589496e-01  -9.8002915093337362e-01  -9.8692688923402361e-01  -9.9230285780534477e-01  -9.9614876729345492e-01  -9.9845868758468381e-01  -9.9922905694936703e-01  -9.9845868753378109e-01  -9.9614876719173018e-01  -9.9230285765295345e-01  -9.8692688903120240e-01  -9.8002915068043406e-01  -9.7162027841322707e-01  -9.6171323810113063e-01  -9.5032330568223033e-01  -9.3746804360675651e-01  -9.2316727375706109e-01  -9.0744304688371336e-01  -8.9031960860483628e-01  -8.7182336202112598e-01  -8.5198282700417771e-01  -8.3082859622091954e-01  -8.0839328796192844e-01  -7.8471149584639988e-01  -7.5981973548127957e-01  -7.3375638815686506e-01  -7.0656164166562097e-01  -6.7827742833552218e-01  -6.4894736037344247e-01  -6.1861666261829473e-01  -5.8733210280760628e-01  -5.5514191946505476e-01  -5.2209574752016341e-01  -4.8824454177483784e-01  -4.5364049833475378e-01  -4.1833697412674586e-01  -3.8238840462629220e-01  -3.4585021992196002e-01  -3.0877875924622322e-01  -2.7123118410445135e-01  -2.3326539013601355e-01  -1.9493991784339326e-01  -1.5631386232698127e-01  -1.1744678216471323e-01  -7.8398607577057911e-02  -3.9229548018964472e-02  6.5875762638029527e-10  3.9229549335459774e-02  7.8398608890494853e-02  1.1744678347305761e-01  1.5631386362820598e-01  1.9493991913548098e-01  2.3326539141695982e-01  2.7123118537226693e-01  3.0877876049893693e-01  3.4585022115762126e-01  3.8238840584297362e-01  4.1833697532254638e-01  4.5364049950780122e-01  4.8824454292329145e-01  5.2209574864221420e-01  5.5514192055893030e-01  5.8733210387157186e-01  6.1861666365065526e-01  6.4894736137254549e-01  6.7827742929975787e-01  7.0656164259342791e-01  7.3375638904672946e-01  7.5981973633173705e-01  7.8471149665603834e-01  8.0839328872939586e-01  8.3082859694491751e-01  8.5198282768347555e-01  8.7182336265456351e-01  8.9031960919134345e-01  9.0744304742232307e-01  9.2316727424695388e-01  9.3746804404733675e-01  9.5032330607327153e-01  9.6171323844309153e-01  9.7162027870797241e-01  9.8002915093307463e-01  9.8692688925541405e-01  9.9230285788906436e-01  9.9614876758141568e-01  9.9845868870177590e-01  9.9922903624072290e-01  9.9691733373312796e-01  9.9614876747969627e-01  9.9384419103590715e-01  9.9000717882467093e-01  9.8464364735232601e-01  9.7776186677483345e-01  9.6937244828301894e-01  9.5948832774431814e-01  9.4812474575253913e-01  9.3529922412571487e-01  9.2103153888771949e-01  9.0534368977460378e-01  8.8825986631239617e-01  8.6980641051850094e-01  8.5001177628416458e-01  8.2890648550061197e-01  8.0652308099648662e-01  7.8289607635916236e-01  7.5806190271728158e-01  7.3205885256660186e-01  7.0492702072573177e-01  6.7670824251283401e-01  6.4744602923859085e-01  6.1718550111492121e-01  5.8597331768287941e-01  5.5385760586702759e-01  5.2088788576720746e-01  4.8711499430213090e-01  4.5259100682254177e-01  4.1736915681479408e-01  3.8150375381868046e-01  3.4505009968605332e-01  3.0806440330937951e-01  2.7060369395170430e-01  2.3272573331165711e-01  1.9448892645910212e-01  1.5595223177875317e-01  1.1717507006061784e-01  7.8217232877446072e-02  3.9138790390458512e-02  -1.2744873352998774e-09  -3.9138792937475991e-02  -7.8217235418595973e-02  -1.1717507259199929e-01  -1.5595223429648242e-01  -1.9448892895931785e-01  -2.3272573579052841e-01  -2.7060369640543763e-01  -3.0806440573422345e-01  -3.4505010207830500e-01  -3.8150375617469490e-01  -4.1736915913098799e-01  -4.5259100909540084e-01  -4.8711499652821572e-01  -5.2088788794315899e-01  -5.5385760798957584e-01  -5.8597331974884637e-01  -6.1718550312123044e-01  -6.4744603118227007e-01  -6.7670824439102162e-01  -7.0492702253568318e-01  -7.3205885430569329e-01  -7.5806190438301502e-01  -7.8289607794916827e-01  -8.0652308250853044e-01  -8.2890648693258850e-01  -8.5001177763410196e-01  -8.6980641178455187e-01  -8.8825986749282093e-01  -9.0534369086773847e-01  -9.2103153989192177e-01  -9.3529922503925222e-01  -9.4812474657337587e-01  -9.5948832846969834e-01  -9.6937244890858354e-01  -9.7776186729273051e-01  -9.8464364774707036e-01  -9.9000717906493951e-01  -9.9384419106980404e-01  -9.9614876736726543e-01  -9.9691735446771124e-01  -9.9614876726554058e-01  -9.9384419086651199e-01  -9.9000717876039279e-01  -9.8464364734173859e-01  -9.7776186678724220e-01  -9.6937244830371416e-01  -9.5948832776638204e-01  -9.4812474577269668e-01  -9.3529922414244604e-01  -9.2103153890037071e-01  -9.0534368978297153e-01  -8.8825986631651066e-01  -8.6980641051851260e-01  -8.5001177628028590e-01  -8.2890648549308243e-01  -8.0652308098555558e-01  -7.8289607634507075e-01  -7.5806190270026952e-01  -7.3205885254689373e-01  -7.0492702070354307e-01  -6.7670824248836614e-01  -6.4744602921203298e-01  -6.1718550108644799e-01  -5.8597331765265726e-01  -5.5385760583521126e-01  -5.2088788573394151e-01  -4.8711499426755128e-01  -4.5259100678677522e-01  -4.1736915677796183e-01  -3.8150375378089590e-01  -3.4505009964742434e-01  -3.0806440327000928e-01  -2.7060369391168887e-01  -2.3272573327109150e-01  -1.9448892641807694e-01  -1.5595223173735612e-01  -1.1717507001893399e-01  -7.8217232835558009e-02  -3.9138790348449297e-02  1.3165362238237377e-09  3.9138792979483542e-02  7.8217235460480539e-02  1.1717507263367966e-01  1.5595223433787400e-01  1.9448892900033596e-01  2.3272573583108574e-01  2.7060369644544308e-01  3.0806440577358413e-01  3.4505010211692250e-01  3.8150375621246646e-01  4.1736915916780565e-01  4.5259100913115047e-01  4.8711499656277923e-01  5.2088788797640750e-01  5.5385760802137329e-01  5.8597331977904854e-01  6.1718550314968224e-01  6.4744603120880662e-01  6.7670824441546495e-01  7.0492702255784523e-01  7.3205885432537332e-01  7.5806190440000076e-01  7.8289607796323246e-01  8.0652308251943494e-01  8.2890648694008995e-01  8.5001177763795321e-01  8.6980641178451312e-01  8.8825986748868035e-01  9.0534369085934452e-01  9.2103153987924469e-01  9.3529922502249607e-01  9.4812474655319234e-01  9.5948832844761067e-01  9.6937244888786656e-01  9.7776186728030412e-01  9.8464364775763946e-01  9.9000717912920355e-01  9.9384419123918932e-01  9.9614876758141502e-01  9.9691733373312807e-01  9.9306845695492629e-01  9.9230285773668125e-01  9.9000717882467115e-01  9.8618498053643922e-01  9.8084215648069484e-01  9.7398694492021476e-01  9.6562991609375926e-01  9.5578395593132126e-01  9.4446424618776570e-01  9.3168824103379255e-01  9.1747564014261052e-01  9.0184835831424570e-01  8.8483049168437533e-01  8.6644828056975587e-01  8.4673006900750969e-01  8.2570626105064771e-01  8.0340927388721117e-01  7.7987348785530575e-01  7.5513519343110869e-01  7.2923253527158061e-01  7.0220545339816842e-01  6.7409562161218439e-01  6.4494638323682885e-01  6.1480268428492146e-01  5.8371100415541022e-01  5.5171928396550551e-01  5.1887685262895578e-01  4.8523435079443233e-01  4.5084365276132521e-01  4.1575778649332906e-01  3.8003085185316915e-01  3.4371793718453514e-01  3.0687503436984609e-01  2.6955895249482692e-01  2.3182723025301619e-01  1.9373804722527049e-01  1.5535013417106927e-01  1.1672268246993855e-01  7.7915252852636452e-02  3.8987683562820841e-02  -1.9091829844811334e-09  -3.8987687378254664e-02  -7.7915256659279439e-02  -1.1672268626194665e-01  -1.5535013794262326e-01  -1.9373805097058602e-01  -2.3182723396635402e-01  -2.6955895617050268e-01  -3.0687503800223909e-01  -3.4371794076809947e-01  -3.8003085538244186e-01  -4.1575778996294188e-01  -4.5084365616601324e-01  -4.8523435412904214e-01  -5.1887685588845489e-01  -5.5171928714499385e-01  -5.8371100725012748e-01  -6.1480268729025700e-01  -6.4494638614833000e-01  -6.7409562442556370e-01  -7.0220545610931240e-01  -7.2923253787656050e-01  -7.5513519592618195e-01  -7.7987349023692609e-01  -8.0340927615203328e-01  -8.2570626319552831e-01  -8.4673007102950659e-01  -8.6644828246612482e-01  -8.8483049345255127e-01  -9.0184835995181345e-01  -9.1747564164724593e-01  -9.3168824240316583e-01  -9.4446424741935575e-01  -9.5578395702210395e-01  -9.6562991703966827e-01  -9.7398694571535405e-01  -9.8084215711667366e-01  -9.8618498100451912e-01  -9.9000717913171188e-01  -9.9230285794577744e-01  -9.9306847767637907e-01  -9.9230285779338601e-01  -9.9000717882716538e-01  -9.8618498054828674e-01  -9.8084215650945872e-01  -9.7398694495809413e-01  -9.6562991613353011e-01  -9.5578395596848464e-01  -9.4446424621988212e-01  -9.3168824105968606e-01  -9.1747564016183170e-01  -9.0184835832675347e-01  -8.8483049169035455e-01  -8.6644828056950784e-01  -8.4673006900139236e-01  -8.2570626103904432e-01  -8.0340927387050565e-01  -7.7987348783387256e-01  -7.5513519340530755e-01  -7.2923253524175280e-01  -7.0220545336463480e-01  -6.7409562157524805e-01  -6.4494638319677189e-01  -6.1480268424200624e-01  -5.8371100410988408e-01  -5.5171928391760006e-01  -5.1887685257888705e-01  -4.8523435074240329e-01  -4.5084365270752541e-01  -4.1575778643793820e-01  -3.8003085179635759e-01  -3.4371793712646392e-01  -3.0687503431066820e-01  -2.6955895243468736e-01  -2.3182723019205520e-01  -1.9373804716362361e-01  -1.5535013410886700e-01  -1.1672268240730842e-01  -7.7915252789701892e-02  -3.8987683499705390e-02  1.9723577851583376e-09  3.8987687441367810e-02  7.7915256722209211e-02  1.1672268632457139e-01  1.5535013800481745e-01  1.9373805103222300e-01  2.3182723402730276e-01  2.6955895623062825e-01  3.0687503806140226e-01  3.4371794082615303e-01  3.8003085543923359e-01  4.1575779001831054e-01  4.5084365621978928e-01  4.8523435418104721e-01  5.1887685593849719e-01  5.5171928719287155e-01  5.8371100729562397e-01  6.1480268733314136e-01  6.4494638618835520e-01  6.7409562446246518e-01  7.0220545614280849e-01  7.2923253790634912e-01  7.5513519595194356e-01  7.7987349025831965e-01  8.0340927616869839e-01  8.2570626320709051e-01  8.4673007103558295e-01  8.6644828246633365e-01  8.8483049344653320e-01  9.0184835993926615e-01  9.1747564162798723e-01  9.3168824237723646e-01  9.4446424738720458e-01  9.5578395698490626e-01  9.6562991699986611e-01  9.7398694567744681e-01  9.8084215708788425e-01  9.8618498099265128e-01  9.9000717912920322e-01  9.9230285788906381e-01  9.9306845695492629e-01  9.8768834059513777e-01  9.8692688905260162e-01  9.8464364735232646e-01  9.8084215648069495e-01  9.7552827808015741e-01  9.6871020577840106e-01  9.6039845255307554e-01  9.5060583452592995e-01  9.3934745120385088e-01  9.2664066219743968e-01  9.1250506045398949e-01  8.9696244204659425e-01  8.8003677256616297e-01  8.6175415016817780e-01  8.4214276533121002e-01  8.2123285738922491e-01  7.9905666790471419e-01  7.7564839095453342e-01  7.5104412040510971e-01  7.2528179425831618e-01  6.9840113615381794e-01  6.7044359411809906e-01  6.4145227665461124e-01  6.1147188627358284e-01  5.8054865056399074e-01  5.4873025091396666e-01  5.1606574898955448e-01  4.8260551108517452e-01  4.4840113046245428e-01  4.1350534779715054e-01  3.7797196985685549e-01  3.4185578653486176e-01  3.0521248636811449e-01  2.6809857066952797e-01  2.3057126640705217e-01  1.9268843796384033e-01  1.5450849791556151e-01  1.1609031696244425e-01  7.7493133154923427e-02  3.8776460552859819e-02  -2.5408256290766968e-09  -3.8776465630608201e-02  -7.7493138220970537e-02  -1.1609032200901098e-01  -1.5450850293490226e-01  -1.9268844294825563e-01  -2.3057127134890251e-01  -2.6809857556124617e-01  -3.0521249120221977e-01  -3.4185579130397076e-01  -3.7797197455369741e-01  -4.1350535241457814e-01  -4.4840113499345968e-01  -4.8260551552289727e-01  -5.1606575332729598e-01  -5.4873025514520357e-01  -5.8054865468238659e-01  -6.1147189027299975e-01  -6.4145228052912040e-01  -6.7044359786199303e-01  -6.9840113976162277e-01  -7.2528179772480139e-01  -7.5104412372529639e-01  -7.7564839412370401e-01  -7.9905667091842236e-01  -8.2123286024329822e-01  -8.4214276802175536e-01  -8.6175415269157629e-01  -8.8003677491906385e-01  -8.9696244422589033e-01  -9.1250506245678242e-01  -9.2664066402097878e-01  -9.3934745284543619e-01  -9.5060583598279247e-01  -9.6039845382227274e-01  -9.6871020685695208e-01  -9.7552827896610006e-01  -9.8084215717670598e-01  -9.8464364787372693e-01  -9.8692688943404405e-01  -9.8768836126466619e-01  -9.8692688923122174e-01  -9.8464364746839628e-01  -9.8084215656949103e-01  -9.7552827815793919e-01  -9.6871020584909084e-01  -9.6039845261626455e-01  -9.5060583458049752e-01  -9.3934745124901742e-01  -9.2664066223289765e-01  -9.1250506047979463e-01  -8.9696244206304532e-01  -8.8003677257369806e-01  -8.6175415016730605e-01  -8.4214276532247079e-01  -8.2123285737316309e-01  -7.9905666788186180e-01  -7.7564839092540083e-01  -7.5104412037018120e-01  -7.2528179421804873e-01  -6.9840113610864052e-01  -6.7044359406841314e-01  -6.4145227660079240e-01  -6.1147188621598003e-01  -5.8054865050293158e-01  -5.4873025084975724e-01  -5.1606574892248147e-01  -4.8260551101550658e-01  -4.4840113039044244e-01  -4.1350534772303299e-01  -3.7797196978085762e-01  -3.4185578645719589e-01  -3.0521248628898401e-01  -2.6809857058912440e-01  -2.3057126632556146e-01  -1.9268843788144138e-01  -1.5450849783242743e-01  -1.1609031687874341e-01  -7.7493133070819967e-02  -3.8776460468516752e-02  2.6252473360065126e-09  3.8776465714948381e-02  7.7493138305068057e-02  1.1609032209270455e-01  1.5450850301802613e-01  1.9268844303064173e-01  2.3057127143037781e-01  2.6809857564163203e-01  3.0521249128133154e-01  3.4185579138161426e-01  3.7797197462967030e-01  4.1350535248866788e-01  4.4840113506544160e-01  4.8260551559253473e-01  5.1606575339433547e-01  5.4873025520937746e-01  5.8054865474340822e-01  6.1147189033056260e-01  6.4145228058289783e-01  6.7044359791163488e-01  6.9840113980675433e-01  7.2528179776502022e-01  7.5104412376017549e-01  7.7564839415278664e-01  7.9905667094122401e-01  8.2123286025930853e-01  8.4214276803044297e-01  8.6175415269239886e-01  8.8003677491148047e-01  8.9696244420939142e-01  9.1250506243093044e-01  9.2664066398547751e-01  9.3934745280022791e-01  9.5060583592818548e-01  9.6039845375904642e-01  9.6871020678622888e-01  9.7552827888828997e-01  9.8084215708788502e-01  9.8464364775763913e-01  9.8692688925541305e-01  9.8768834059513766e-01  9.8078528040323054e-01  9.8002915068014496e-01  9.7776186677483401e-01  9.7398694492021443e-01  9.6871020577840061e-01  9.6193978570527083e-01  9.5368612420185139e-01  9.4396194781775589e-0